 Entering Gaussian System, Link 0=g16
 Initial command:
 /opt/software/Gaussian/g16-AVX2-C.01/g16/l1.exe "/mnt/gs21/scratch/lizhen6/Gau-6905.inp" -scrdir="/mnt/gs21/scratch/lizhen6/"
 Entering Link 1 = /opt/software/Gaussian/g16-AVX2-C.01/g16/l1.exe PID=      6907.
  
 Copyright (c) 1988-2019, Gaussian, Inc.  All Rights Reserved.
  
 This is part of the Gaussian(R) 16 program.  It is based on
 the Gaussian(R) 09 system (copyright 2009, Gaussian, Inc.),
 the Gaussian(R) 03 system (copyright 2003, Gaussian, Inc.),
 the Gaussian(R) 98 system (copyright 1998, Gaussian, Inc.),
 the Gaussian(R) 94 system (copyright 1995, Gaussian, Inc.),
 the Gaussian 92(TM) system (copyright 1992, Gaussian, Inc.),
 the Gaussian 90(TM) system (copyright 1990, Gaussian, Inc.),
 the Gaussian 88(TM) system (copyright 1988, Gaussian, Inc.),
 the Gaussian 86(TM) system (copyright 1986, Carnegie Mellon
 University), and the Gaussian 82(TM) system (copyright 1983,
 Carnegie Mellon University). Gaussian is a federally registered
 trademark of Gaussian, Inc.
  
 This software contains proprietary and confidential information,
 including trade secrets, belonging to Gaussian, Inc.
  
 This software is provided under written license and may be
 used, copied, transmitted, or stored only in accord with that
 written license.
  
 The following legend is applicable only to US Government
 contracts under FAR:
  
                    RESTRICTED RIGHTS LEGEND
  
 Use, reproduction and disclosure by the US Government is
 subject to restrictions as set forth in subparagraphs (a)
 and (c) of the Commercial Computer Software - Restricted
 Rights clause in FAR 52.227-19.
  
 Gaussian, Inc.
 340 Quinnipiac St., Bldg. 40, Wallingford CT 06492
  
  
 ---------------------------------------------------------------
 Warning -- This program may not be used in any manner that
 competes with the business of Gaussian, Inc. or will provide
 assistance to any competitor of Gaussian, Inc.  The licensee
 of this program is prohibited from giving any competitor of
 Gaussian, Inc. access to this program.  By using this program,
 the user acknowledges that Gaussian, Inc. is engaged in the
 business of creating and licensing software in the field of
 computational chemistry and represents and warrants to the
 licensee that it is not a competitor of Gaussian, Inc. and that
 it will not use this program in any manner prohibited above.
 ---------------------------------------------------------------
  

 Cite this work as:
 Gaussian 16, Revision C.01,
 M. J. Frisch, G. W. Trucks, H. B. Schlegel, G. E. Scuseria, 
 M. A. Robb, J. R. Cheeseman, G. Scalmani, V. Barone, 
 G. A. Petersson, H. Nakatsuji, X. Li, M. Caricato, A. V. Marenich, 
 J. Bloino, B. G. Janesko, R. Gomperts, B. Mennucci, H. P. Hratchian, 
 J. V. Ortiz, A. F. Izmaylov, J. L. Sonnenberg, D. Williams-Young, 
 F. Ding, F. Lipparini, F. Egidi, J. Goings, B. Peng, A. Petrone, 
 T. Henderson, D. Ranasinghe, V. G. Zakrzewski, J. Gao, N. Rega, 
 G. Zheng, W. Liang, M. Hada, M. Ehara, K. Toyota, R. Fukuda, 
 J. Hasegawa, M. Ishida, T. Nakajima, Y. Honda, O. Kitao, H. Nakai, 
 T. Vreven, K. Throssell, J. A. Montgomery, Jr., J. E. Peralta, 
 F. Ogliaro, M. J. Bearpark, J. J. Heyd, E. N. Brothers, K. N. Kudin, 
 V. N. Staroverov, T. A. Keith, R. Kobayashi, J. Normand, 
 K. Raghavachari, A. P. Rendell, J. C. Burant, S. S. Iyengar, 
 J. Tomasi, M. Cossi, J. M. Millam, M. Klene, C. Adamo, R. Cammi, 
 J. W. Ochterski, R. L. Martin, K. Morokuma, O. Farkas, 
 J. B. Foresman, and D. J. Fox, Gaussian, Inc., Wallingford CT, 2019.
 
 ******************************************
 Gaussian 16:  ES64L-G16RevC.01  3-Jul-2019
                26-Mar-2023 
 ******************************************
 %Chk=6WZ3_small_opt4.chk
 %Mem=32GB
 %NProcShared=8
 Will use up to    8 processors via shared memory.
 --------------------------------------
 # B3LYP/6-31G* Geom=Chk Guess=Read Opt
 --------------------------------------
 1/18=20,19=15,26=3,29=2,38=1/1,3;
 2/9=110,12=2,40=1/2;
 3/5=1,6=6,7=1,11=2,14=-4,25=1,30=1,71=1,74=-5,116=-2/1,2,3;
 4/5=1/1;
 5/5=2,38=6/2;
 6/7=2,8=2,9=2,10=2,28=1/1;
 7//1,2,3,16;
 1/18=20,19=15,26=3/3(2);
 2/9=110/2;
 99//99;
 2/9=110/2;
 3/5=1,6=6,7=1,11=2,14=-2,25=1,30=1,71=1,74=-5/1,2,3;
 4/5=5,16=3,69=1/1;
 5/5=2,38=5/2;
 7//1,2,3,16;
 1/18=20,19=15,26=3/3(-5);
 2/9=110/2;
 6/7=2,8=2,9=2,10=2,19=2,28=1/1;
 99/9=1/99;
 ---
 CLR
 ---
 Structure from the checkpoint file:  "6WZ3_small_opt4.chk"
 Charge =  0 Multiplicity = 1
 Redundant internal coordinates found in file.  (old form).
 O,0,-0.1902408336,3.6334455432,-0.9892574341
 O,0,-1.0130461953,1.6457310302,1.6390614621
 O,0,-1.8640068439,-0.3439430839,-0.35473766
 O,0,-1.1227704945,-2.8659527474,0.246778194
 O,0,2.2005004034,3.1982137887,-2.1072855284
 O,0,4.2474788844,-1.6239144519,-0.1298829589
 O,0,3.1142825105,-0.5615358133,-2.1982938218
 O,0,0.2754091872,0.3095674208,3.7169912124
 O,0,-3.2256226998,2.2249892675,1.2582457104
 O,0,-1.8215814375,-1.1084627905,-2.5421665791
 O,0,5.5310895195,0.2272812475,-0.5904598854
 C,0,0.4218533909,0.6847584591,-0.0493179234
 C,0,-0.4336909453,1.9126715155,0.2914429208
 C,0,1.4817927358,0.9176556379,-1.1909975481
 C,0,0.4157247286,3.209615901,0.3394645835
 C,0,-0.3899483711,-0.6271728327,-0.2857626824
 C,0,-0.2147645934,-1.8131609476,0.7163706349
 C,0,2.3304015227,2.2887998611,-0.9912114661
 C,0,1.9201986228,3.0294623887,0.294510412
 C,0,1.2134014146,-2.4228187706,0.6225561554
 C,0,-1.2691950598,2.5673845274,-0.8392279595
 C,0,2.5754223834,-0.1810308901,-1.1587322935
 C,0,-0.5511214677,-1.4910695446,2.1881349945
 C,0,2.1613341422,-1.3277644926,1.1318753823
 C,0,0.8973551388,0.932824925,-2.6232022238
 C,0,3.1631028378,-0.6848225501,0.2082716867
 C,0,0.6218339018,-0.981090676,3.0900165327
 C,0,1.9464749788,-0.7885751888,2.3487876857
 C,0,1.3117926872,-3.6632740179,1.5594760957
 C,0,1.5275409267,-2.9588270886,-0.7965684348
 C,0,2.8836431874,0.1905658407,3.0383066166
 C,0,-2.333141944,1.9062404947,2.0326343255
 C,0,-2.4694064619,-0.7369573057,-1.5656401636
 C,0,-2.4540372693,1.7506273834,3.5323227256
 C,0,5.385996899,-0.9888025358,-0.6358930446
 C,0,-3.9447150815,-0.6758099492,-1.5109150352
 C,0,6.3221059083,-2.0213596335,-1.2050309621
 C,0,-4.6353193092,-1.2925646956,-2.5646471265
 C,0,-4.6458420023,-0.0299402357,-0.4865481
 C,0,-6.0262518697,-1.2909690513,-2.5785328638
 C,0,-6.0405199177,-0.0210734599,-0.5137613755
 C,0,-6.7308802682,-0.6577343926,-1.548805247
 H,0,0.9917384824,0.5266973044,0.8593409352
 H,0,0.0805064498,3.8743414929,1.1401617938
 H,0,-0.1503345529,-1.0379713421,-1.2604352926
 H,0,3.3923306931,2.0274977994,-0.9516782055
 H,0,2.2294166298,2.4896542065,1.1968841592
 H,0,2.4258542294,4.0000271804,0.2882926439
 H,0,-1.3790619163,1.9798473447,-1.7447341668
 H,0,-2.2053347106,2.9961880669,-0.5018951895
 H,0,-0.9419600407,-2.4221220293,2.6060938941
 H,0,-1.3518249719,-0.7512690674,2.2117518335
 H,0,0.378154764,1.8674521887,-2.8175738016
 H,0,1.7234180122,0.8561545264,-3.3285434997
 H,0,0.2114422429,0.1014691196,-2.7951230505
 H,0,3.612187341,0.1922832446,0.6808461749
 H,0,0.7533336333,-1.6582725071,3.9394547626
 H,0,2.2838037643,-4.1429486285,1.4076918507
 H,0,1.2295944242,-3.3952067586,2.614925767
 H,0,0.5124387074,-4.3614173746,1.2990576127
 H,0,2.5795011911,-3.2488400263,-0.8416905584
 H,0,0.8830806863,-3.8206763279,-0.9809717256
 H,0,1.3535243739,-2.2399120698,-1.5952402223
 H,0,-2.0441611966,-2.5081836741,0.3639726166
 H,0,1.2706381859,3.5726378513,-2.0159943088
 H,0,2.6162893891,1.2342244422,2.834159227
 H,0,2.8029526483,0.0625537936,4.121376405
 H,0,3.9222024633,0.0284395909,2.7411129372
 H,0,0.0211485668,0.9200813891,2.9633405626
 H,0,-3.4787589694,1.4669979677,3.7770094597
 H,0,-1.7262750971,1.0323106319,3.9145683005
 H,0,-2.2494031903,2.7233870938,3.9992676547
 H,0,5.8965682362,-2.3767463951,-2.1503724088
 H,0,6.3993661699,-2.8734794306,-0.5260188221
 H,0,7.2992904273,-1.5748123908,-1.3871851232
 H,0,-4.0608873646,-1.7656327769,-3.3511429771
 H,0,-4.1098955047,0.511799959,0.2777581611
 H,0,-6.5613975479,-1.7748274201,-3.3866878539
 H,0,-6.5883768193,0.4915051168,0.2679324926
 H,0,-7.8147426758,-0.6514401781,-1.5600810514
 Recover connectivity data from disk.

 GradGradGradGradGradGradGradGradGradGradGradGradGradGradGradGradGradGrad
 Berny optimization.
 Initialization pass.
                           ----------------------------
                           !    Initial Parameters    !
                           ! (Angstroms and Degrees)  !
 --------------------------                            --------------------------
 ! Name  Definition              Value          Derivative Info.                !
 --------------------------------------------------------------------------------
 ! R1    R(1,15)                 1.5206         estimate D2E/DX2                !
 ! R2    R(1,21)                 1.5242         estimate D2E/DX2                !
 ! R3    R(2,13)                 1.491          estimate D2E/DX2                !
 ! R4    R(2,32)                 1.4019         estimate D2E/DX2                !
 ! R5    R(3,16)                 1.5026         estimate D2E/DX2                !
 ! R6    R(3,33)                 1.4097         estimate D2E/DX2                !
 ! R7    R(4,17)                 1.4674         estimate D2E/DX2                !
 ! R8    R(4,64)                 0.9953         estimate D2E/DX2                !
 ! R9    R(5,18)                 1.4455         estimate D2E/DX2                !
 ! R10   R(5,65)                 1.0066         estimate D2E/DX2                !
 ! R11   R(6,26)                 1.4738         estimate D2E/DX2                !
 ! R12   R(6,35)                 1.3984         estimate D2E/DX2                !
 ! R13   R(7,22)                 1.2312         estimate D2E/DX2                !
 ! R14   R(8,27)                 1.4761         estimate D2E/DX2                !
 ! R15   R(8,69)                 1.0027         estimate D2E/DX2                !
 ! R16   R(9,32)                 1.2238         estimate D2E/DX2                !
 ! R17   R(10,33)                1.2293         estimate D2E/DX2                !
 ! R18   R(11,35)                1.2256         estimate D2E/DX2                !
 ! R19   R(12,13)                1.5349         estimate D2E/DX2                !
 ! R20   R(12,14)                1.5752         estimate D2E/DX2                !
 ! R21   R(12,16)                1.5608         estimate D2E/DX2                !
 ! R22   R(12,43)                1.0842         estimate D2E/DX2                !
 ! R23   R(13,15)                1.5511         estimate D2E/DX2                !
 ! R24   R(13,21)                1.5508         estimate D2E/DX2                !
 ! R25   R(14,18)                1.6248         estimate D2E/DX2                !
 ! R26   R(14,22)                1.5505         estimate D2E/DX2                !
 ! R27   R(14,25)                1.5469         estimate D2E/DX2                !
 ! R28   R(15,19)                1.5159         estimate D2E/DX2                !
 ! R29   R(15,44)                1.0933         estimate D2E/DX2                !
 ! R30   R(16,17)                1.5625         estimate D2E/DX2                !
 ! R31   R(16,45)                1.0845         estimate D2E/DX2                !
 ! R32   R(17,20)                1.5557         estimate D2E/DX2                !
 ! R33   R(17,23)                1.5437         estimate D2E/DX2                !
 ! R34   R(18,19)                1.5395         estimate D2E/DX2                !
 ! R35   R(18,46)                1.0943         estimate D2E/DX2                !
 ! R36   R(19,47)                1.096          estimate D2E/DX2                !
 ! R37   R(19,48)                1.0944         estimate D2E/DX2                !
 ! R38   R(20,24)                1.5353         estimate D2E/DX2                !
 ! R39   R(20,29)                1.5576         estimate D2E/DX2                !
 ! R40   R(20,30)                1.5492         estimate D2E/DX2                !
 ! R41   R(21,49)                1.085          estimate D2E/DX2                !
 ! R42   R(21,50)                1.0835         estimate D2E/DX2                !
 ! R43   R(22,26)                1.5709         estimate D2E/DX2                !
 ! R44   R(23,27)                1.565          estimate D2E/DX2                !
 ! R45   R(23,51)                1.0928         estimate D2E/DX2                !
 ! R46   R(23,52)                1.0904         estimate D2E/DX2                !
 ! R47   R(24,26)                1.5066         estimate D2E/DX2                !
 ! R48   R(24,28)                1.3482         estimate D2E/DX2                !
 ! R49   R(25,53)                1.0867         estimate D2E/DX2                !
 ! R50   R(25,54)                1.0889         estimate D2E/DX2                !
 ! R51   R(25,55)                1.0914         estimate D2E/DX2                !
 ! R52   R(26,56)                1.0928         estimate D2E/DX2                !
 ! R53   R(27,28)                1.5301         estimate D2E/DX2                !
 ! R54   R(27,57)                1.0943         estimate D2E/DX2                !
 ! R55   R(28,31)                1.5207         estimate D2E/DX2                !
 ! R56   R(29,58)                1.0945         estimate D2E/DX2                !
 ! R57   R(29,59)                1.0921         estimate D2E/DX2                !
 ! R58   R(29,60)                1.0928         estimate D2E/DX2                !
 ! R59   R(30,61)                1.0921         estimate D2E/DX2                !
 ! R60   R(30,62)                1.0918         estimate D2E/DX2                !
 ! R61   R(30,63)                1.0886         estimate D2E/DX2                !
 ! R62   R(31,66)                1.0965         estimate D2E/DX2                !
 ! R63   R(31,67)                1.0936         estimate D2E/DX2                !
 ! R64   R(31,68)                1.0923         estimate D2E/DX2                !
 ! R65   R(32,34)                1.5126         estimate D2E/DX2                !
 ! R66   R(33,36)                1.4776         estimate D2E/DX2                !
 ! R67   R(34,70)                1.091          estimate D2E/DX2                !
 ! R68   R(34,71)                1.0917         estimate D2E/DX2                !
 ! R69   R(34,72)                1.0983         estimate D2E/DX2                !
 ! R70   R(35,37)                1.5055         estimate D2E/DX2                !
 ! R71   R(36,38)                1.4027         estimate D2E/DX2                !
 ! R72   R(36,39)                1.3993         estimate D2E/DX2                !
 ! R73   R(37,73)                1.0959         estimate D2E/DX2                !
 ! R74   R(37,74)                1.0923         estimate D2E/DX2                !
 ! R75   R(37,75)                1.0897         estimate D2E/DX2                !
 ! R76   R(38,40)                1.391          estimate D2E/DX2                !
 ! R77   R(38,76)                1.0827         estimate D2E/DX2                !
 ! R78   R(39,41)                1.395          estimate D2E/DX2                !
 ! R79   R(39,77)                1.0793         estimate D2E/DX2                !
 ! R80   R(40,42)                1.3992         estimate D2E/DX2                !
 ! R81   R(40,78)                1.0833         estimate D2E/DX2                !
 ! R82   R(41,42)                1.3976         estimate D2E/DX2                !
 ! R83   R(41,79)                1.0835         estimate D2E/DX2                !
 ! R84   R(42,80)                1.0839         estimate D2E/DX2                !
 ! A1    A(15,1,21)             90.0651         estimate D2E/DX2                !
 ! A2    A(13,2,32)            125.8997         estimate D2E/DX2                !
 ! A3    A(16,3,33)            114.0902         estimate D2E/DX2                !
 ! A4    A(17,4,64)            106.0957         estimate D2E/DX2                !
 ! A5    A(18,5,65)            104.3009         estimate D2E/DX2                !
 ! A6    A(26,6,35)            113.1194         estimate D2E/DX2                !
 ! A7    A(27,8,69)            105.8215         estimate D2E/DX2                !
 ! A8    A(13,12,14)           114.69           estimate D2E/DX2                !
 ! A9    A(13,12,16)           114.5927         estimate D2E/DX2                !
 ! A10   A(13,12,43)           102.918          estimate D2E/DX2                !
 ! A11   A(14,12,16)           111.3751         estimate D2E/DX2                !
 ! A12   A(14,12,43)           105.9808         estimate D2E/DX2                !
 ! A13   A(16,12,43)           106.1301         estimate D2E/DX2                !
 ! A14   A(2,13,12)            105.9041         estimate D2E/DX2                !
 ! A15   A(2,13,15)            109.543          estimate D2E/DX2                !
 ! A16   A(2,13,21)            121.6825         estimate D2E/DX2                !
 ! A17   A(12,13,15)           111.7497         estimate D2E/DX2                !
 ! A18   A(12,13,21)           118.4355         estimate D2E/DX2                !
 ! A19   A(15,13,21)            87.9717         estimate D2E/DX2                !
 ! A20   A(12,14,18)           112.7737         estimate D2E/DX2                !
 ! A21   A(12,14,22)           110.779          estimate D2E/DX2                !
 ! A22   A(12,14,25)           114.7253         estimate D2E/DX2                !
 ! A23   A(18,14,22)           103.1217         estimate D2E/DX2                !
 ! A24   A(18,14,25)           107.6307         estimate D2E/DX2                !
 ! A25   A(22,14,25)           107.0189         estimate D2E/DX2                !
 ! A26   A(1,15,13)             89.2994         estimate D2E/DX2                !
 ! A27   A(1,15,19)            113.7474         estimate D2E/DX2                !
 ! A28   A(1,15,44)            110.3827         estimate D2E/DX2                !
 ! A29   A(13,15,19)           116.309          estimate D2E/DX2                !
 ! A30   A(13,15,44)           111.2931         estimate D2E/DX2                !
 ! A31   A(19,15,44)           113.4701         estimate D2E/DX2                !
 ! A32   A(3,16,12)            111.0237         estimate D2E/DX2                !
 ! A33   A(3,16,17)            106.4091         estimate D2E/DX2                !
 ! A34   A(3,16,45)            104.2935         estimate D2E/DX2                !
 ! A35   A(12,16,17)           118.85           estimate D2E/DX2                !
 ! A36   A(12,16,45)           109.8538         estimate D2E/DX2                !
 ! A37   A(17,16,45)           105.3146         estimate D2E/DX2                !
 ! A38   A(4,17,16)            105.6603         estimate D2E/DX2                !
 ! A39   A(4,17,20)            105.5213         estimate D2E/DX2                !
 ! A40   A(4,17,23)            108.661          estimate D2E/DX2                !
 ! A41   A(16,17,20)           111.2046         estimate D2E/DX2                !
 ! A42   A(16,17,23)           115.3832         estimate D2E/DX2                !
 ! A43   A(20,17,23)           109.8339         estimate D2E/DX2                !
 ! A44   A(5,18,14)            112.8941         estimate D2E/DX2                !
 ! A45   A(5,18,19)            108.5544         estimate D2E/DX2                !
 ! A46   A(5,18,46)            105.386          estimate D2E/DX2                !
 ! A47   A(14,18,19)           111.6865         estimate D2E/DX2                !
 ! A48   A(14,18,46)           108.0447         estimate D2E/DX2                !
 ! A49   A(19,18,46)           110.077          estimate D2E/DX2                !
 ! A50   A(15,19,18)           110.2672         estimate D2E/DX2                !
 ! A51   A(15,19,47)           108.3075         estimate D2E/DX2                !
 ! A52   A(15,19,48)           110.6912         estimate D2E/DX2                !
 ! A53   A(18,19,47)           112.0539         estimate D2E/DX2                !
 ! A54   A(18,19,48)           107.3866         estimate D2E/DX2                !
 ! A55   A(47,19,48)           108.1258         estimate D2E/DX2                !
 ! A56   A(17,20,24)           105.5034         estimate D2E/DX2                !
 ! A57   A(17,20,29)           109.5            estimate D2E/DX2                !
 ! A58   A(17,20,30)           112.1477         estimate D2E/DX2                !
 ! A59   A(24,20,29)           109.2367         estimate D2E/DX2                !
 ! A60   A(24,20,30)           115.1809         estimate D2E/DX2                !
 ! A61   A(29,20,30)           105.2279         estimate D2E/DX2                !
 ! A62   A(1,21,13)             89.1789         estimate D2E/DX2                !
 ! A63   A(1,21,49)            111.6097         estimate D2E/DX2                !
 ! A64   A(1,21,50)            111.4351         estimate D2E/DX2                !
 ! A65   A(13,21,49)           115.7474         estimate D2E/DX2                !
 ! A66   A(13,21,50)           113.9256         estimate D2E/DX2                !
 ! A67   A(49,21,50)           112.7458         estimate D2E/DX2                !
 ! A68   A(7,22,14)            120.6718         estimate D2E/DX2                !
 ! A69   A(7,22,26)            118.1574         estimate D2E/DX2                !
 ! A70   A(14,22,26)           120.6106         estimate D2E/DX2                !
 ! A71   A(17,23,27)           117.0077         estimate D2E/DX2                !
 ! A72   A(17,23,51)           105.3549         estimate D2E/DX2                !
 ! A73   A(17,23,52)           108.7968         estimate D2E/DX2                !
 ! A74   A(27,23,51)           108.9815         estimate D2E/DX2                !
 ! A75   A(27,23,52)           108.469          estimate D2E/DX2                !
 ! A76   A(51,23,52)           107.8857         estimate D2E/DX2                !
 ! A77   A(20,24,26)           120.7664         estimate D2E/DX2                !
 ! A78   A(20,24,28)           119.0961         estimate D2E/DX2                !
 ! A79   A(26,24,28)           119.2491         estimate D2E/DX2                !
 ! A80   A(14,25,53)           110.7655         estimate D2E/DX2                !
 ! A81   A(14,25,54)           108.2043         estimate D2E/DX2                !
 ! A82   A(14,25,55)           112.074          estimate D2E/DX2                !
 ! A83   A(53,25,54)           107.8873         estimate D2E/DX2                !
 ! A84   A(53,25,55)           109.0682         estimate D2E/DX2                !
 ! A85   A(54,25,55)           108.7287         estimate D2E/DX2                !
 ! A86   A(6,26,22)            106.256          estimate D2E/DX2                !
 ! A87   A(6,26,24)            110.9745         estimate D2E/DX2                !
 ! A88   A(6,26,56)            107.9548         estimate D2E/DX2                !
 ! A89   A(22,26,24)           114.9329         estimate D2E/DX2                !
 ! A90   A(22,26,56)           105.8207         estimate D2E/DX2                !
 ! A91   A(24,26,56)           110.5264         estimate D2E/DX2                !
 ! A92   A(8,27,23)            110.7198         estimate D2E/DX2                !
 ! A93   A(8,27,28)            107.3932         estimate D2E/DX2                !
 ! A94   A(8,27,57)            103.862          estimate D2E/DX2                !
 ! A95   A(23,27,28)           114.2476         estimate D2E/DX2                !
 ! A96   A(23,27,57)           109.6182         estimate D2E/DX2                !
 ! A97   A(28,27,57)           110.4799         estimate D2E/DX2                !
 ! A98   A(24,28,27)           121.6611         estimate D2E/DX2                !
 ! A99   A(24,28,31)           124.6494         estimate D2E/DX2                !
 ! A100  A(27,28,31)           113.2593         estimate D2E/DX2                !
 ! A101  A(20,29,58)           108.7657         estimate D2E/DX2                !
 ! A102  A(20,29,59)           112.4017         estimate D2E/DX2                !
 ! A103  A(20,29,60)           108.6161         estimate D2E/DX2                !
 ! A104  A(58,29,59)           107.9661         estimate D2E/DX2                !
 ! A105  A(58,29,60)           109.6688         estimate D2E/DX2                !
 ! A106  A(59,29,60)           109.3952         estimate D2E/DX2                !
 ! A107  A(20,30,61)           108.9684         estimate D2E/DX2                !
 ! A108  A(20,30,62)           107.9471         estimate D2E/DX2                !
 ! A109  A(20,30,63)           114.2789         estimate D2E/DX2                !
 ! A110  A(61,30,62)           110.6066         estimate D2E/DX2                !
 ! A111  A(61,30,63)           107.3997         estimate D2E/DX2                !
 ! A112  A(62,30,63)           107.6399         estimate D2E/DX2                !
 ! A113  A(28,31,66)           112.2199         estimate D2E/DX2                !
 ! A114  A(28,31,67)           109.1611         estimate D2E/DX2                !
 ! A115  A(28,31,68)           111.5314         estimate D2E/DX2                !
 ! A116  A(66,31,67)           106.1294         estimate D2E/DX2                !
 ! A117  A(66,31,68)           108.8096         estimate D2E/DX2                !
 ! A118  A(67,31,68)           108.7979         estimate D2E/DX2                !
 ! A119  A(2,32,9)             123.8785         estimate D2E/DX2                !
 ! A120  A(2,32,34)            109.5413         estimate D2E/DX2                !
 ! A121  A(9,32,34)            126.5744         estimate D2E/DX2                !
 ! A122  A(3,33,10)            122.7019         estimate D2E/DX2                !
 ! A123  A(3,33,36)            112.671          estimate D2E/DX2                !
 ! A124  A(10,33,36)           124.6164         estimate D2E/DX2                !
 ! A125  A(32,34,70)           108.9153         estimate D2E/DX2                !
 ! A126  A(32,34,71)           111.1971         estimate D2E/DX2                !
 ! A127  A(32,34,72)           108.3928         estimate D2E/DX2                !
 ! A128  A(70,34,71)           112.12           estimate D2E/DX2                !
 ! A129  A(70,34,72)           108.0534         estimate D2E/DX2                !
 ! A130  A(71,34,72)           108.0426         estimate D2E/DX2                !
 ! A131  A(6,35,11)            122.2504         estimate D2E/DX2                !
 ! A132  A(6,35,37)            109.362          estimate D2E/DX2                !
 ! A133  A(11,35,37)           128.3876         estimate D2E/DX2                !
 ! A134  A(33,36,38)           116.4585         estimate D2E/DX2                !
 ! A135  A(33,36,39)           123.1268         estimate D2E/DX2                !
 ! A136  A(38,36,39)           120.4094         estimate D2E/DX2                !
 ! A137  A(35,37,73)           107.8832         estimate D2E/DX2                !
 ! A138  A(35,37,74)           110.1228         estimate D2E/DX2                !
 ! A139  A(35,37,75)           109.8606         estimate D2E/DX2                !
 ! A140  A(73,37,74)           108.1018         estimate D2E/DX2                !
 ! A141  A(73,37,75)           109.6875         estimate D2E/DX2                !
 ! A142  A(74,37,75)           111.11           estimate D2E/DX2                !
 ! A143  A(36,38,40)           119.9534         estimate D2E/DX2                !
 ! A144  A(36,38,76)           118.4616         estimate D2E/DX2                !
 ! A145  A(40,38,76)           121.5845         estimate D2E/DX2                !
 ! A146  A(36,39,41)           119.3144         estimate D2E/DX2                !
 ! A147  A(36,39,77)           120.0843         estimate D2E/DX2                !
 ! A148  A(41,39,77)           120.4701         estimate D2E/DX2                !
 ! A149  A(38,40,42)           119.7841         estimate D2E/DX2                !
 ! A150  A(38,40,78)           120.0589         estimate D2E/DX2                !
 ! A151  A(42,40,78)           120.1565         estimate D2E/DX2                !
 ! A152  A(39,41,42)           120.3588         estimate D2E/DX2                !
 ! A153  A(39,41,79)           119.6349         estimate D2E/DX2                !
 ! A154  A(42,41,79)           120.0034         estimate D2E/DX2                !
 ! A155  A(40,42,41)           120.1609         estimate D2E/DX2                !
 ! A156  A(40,42,80)           119.9023         estimate D2E/DX2                !
 ! A157  A(41,42,80)           119.9332         estimate D2E/DX2                !
 ! D1    D(21,1,15,13)          14.1874         estimate D2E/DX2                !
 ! D2    D(21,1,15,19)         132.7988         estimate D2E/DX2                !
 ! D3    D(21,1,15,44)         -98.3248         estimate D2E/DX2                !
 ! D4    D(15,1,21,13)         -14.19           estimate D2E/DX2                !
 ! D5    D(15,1,21,49)        -131.6814         estimate D2E/DX2                !
 ! D6    D(15,1,21,50)         101.2842         estimate D2E/DX2                !
 ! D7    D(32,2,13,12)        -137.5874         estimate D2E/DX2                !
 ! D8    D(32,2,13,15)         101.749          estimate D2E/DX2                !
 ! D9    D(32,2,13,21)           1.6735         estimate D2E/DX2                !
 ! D10   D(13,2,32,9)           10.1264         estimate D2E/DX2                !
 ! D11   D(13,2,32,34)        -169.0534         estimate D2E/DX2                !
 ! D12   D(33,3,16,12)         121.1977         estimate D2E/DX2                !
 ! D13   D(33,3,16,17)        -108.1051         estimate D2E/DX2                !
 ! D14   D(33,3,16,45)           2.9434         estimate D2E/DX2                !
 ! D15   D(16,3,33,10)          -9.359          estimate D2E/DX2                !
 ! D16   D(16,3,33,36)         169.4999         estimate D2E/DX2                !
 ! D17   D(64,4,17,16)         -66.024          estimate D2E/DX2                !
 ! D18   D(64,4,17,20)         176.0896         estimate D2E/DX2                !
 ! D19   D(64,4,17,23)          58.3489         estimate D2E/DX2                !
 ! D20   D(65,5,18,14)          73.5012         estimate D2E/DX2                !
 ! D21   D(65,5,18,19)         -50.8916         estimate D2E/DX2                !
 ! D22   D(65,5,18,46)        -168.7916         estimate D2E/DX2                !
 ! D23   D(35,6,26,22)          72.4753         estimate D2E/DX2                !
 ! D24   D(35,6,26,24)        -161.9296         estimate D2E/DX2                !
 ! D25   D(35,6,26,56)         -40.6665         estimate D2E/DX2                !
 ! D26   D(26,6,35,11)          11.1243         estimate D2E/DX2                !
 ! D27   D(26,6,35,37)        -168.7844         estimate D2E/DX2                !
 ! D28   D(69,8,27,23)         -54.6028         estimate D2E/DX2                !
 ! D29   D(69,8,27,28)          70.75           estimate D2E/DX2                !
 ! D30   D(69,8,27,57)        -172.1888         estimate D2E/DX2                !
 ! D31   D(14,12,13,2)        -161.4898         estimate D2E/DX2                !
 ! D32   D(14,12,13,15)        -42.2698         estimate D2E/DX2                !
 ! D33   D(14,12,13,21)         57.6749         estimate D2E/DX2                !
 ! D34   D(16,12,13,2)          67.8497         estimate D2E/DX2                !
 ! D35   D(16,12,13,15)       -172.9304         estimate D2E/DX2                !
 ! D36   D(16,12,13,21)        -72.9856         estimate D2E/DX2                !
 ! D37   D(43,12,13,2)         -46.8866         estimate D2E/DX2                !
 ! D38   D(43,12,13,15)         72.3333         estimate D2E/DX2                !
 ! D39   D(43,12,13,21)        172.278          estimate D2E/DX2                !
 ! D40   D(13,12,14,18)         46.8474         estimate D2E/DX2                !
 ! D41   D(13,12,14,22)        161.849          estimate D2E/DX2                !
 ! D42   D(13,12,14,25)        -76.8608         estimate D2E/DX2                !
 ! D43   D(16,12,14,18)        179.0543         estimate D2E/DX2                !
 ! D44   D(16,12,14,22)        -65.9441         estimate D2E/DX2                !
 ! D45   D(16,12,14,25)         55.3461         estimate D2E/DX2                !
 ! D46   D(43,12,14,18)        -65.958          estimate D2E/DX2                !
 ! D47   D(43,12,14,22)         49.0436         estimate D2E/DX2                !
 ! D48   D(43,12,14,25)        170.3338         estimate D2E/DX2                !
 ! D49   D(13,12,16,3)           9.663          estimate D2E/DX2                !
 ! D50   D(13,12,16,17)       -114.2031         estimate D2E/DX2                !
 ! D51   D(13,12,16,45)        124.4969         estimate D2E/DX2                !
 ! D52   D(14,12,16,3)        -122.5932         estimate D2E/DX2                !
 ! D53   D(14,12,16,17)        113.5408         estimate D2E/DX2                !
 ! D54   D(14,12,16,45)         -7.7593         estimate D2E/DX2                !
 ! D55   D(43,12,16,3)         122.5116         estimate D2E/DX2                !
 ! D56   D(43,12,16,17)         -1.3545         estimate D2E/DX2                !
 ! D57   D(43,12,16,45)       -122.6545         estimate D2E/DX2                !
 ! D58   D(2,13,15,1)         -136.9786         estimate D2E/DX2                !
 ! D59   D(2,13,15,19)         106.7114         estimate D2E/DX2                !
 ! D60   D(2,13,15,44)         -25.3204         estimate D2E/DX2                !
 ! D61   D(12,13,15,1)         105.977          estimate D2E/DX2                !
 ! D62   D(12,13,15,19)        -10.3329         estimate D2E/DX2                !
 ! D63   D(12,13,15,44)       -142.3648         estimate D2E/DX2                !
 ! D64   D(21,13,15,1)         -13.9474         estimate D2E/DX2                !
 ! D65   D(21,13,15,19)       -130.2573         estimate D2E/DX2                !
 ! D66   D(21,13,15,44)         97.7108         estimate D2E/DX2                !
 ! D67   D(2,13,21,1)          125.7218         estimate D2E/DX2                !
 ! D68   D(2,13,21,49)        -120.5745         estimate D2E/DX2                !
 ! D69   D(2,13,21,50)          12.5504         estimate D2E/DX2                !
 ! D70   D(12,13,21,1)         -99.8186         estimate D2E/DX2                !
 ! D71   D(12,13,21,49)         13.885          estimate D2E/DX2                !
 ! D72   D(12,13,21,50)        147.01           estimate D2E/DX2                !
 ! D73   D(15,13,21,1)          13.9146         estimate D2E/DX2                !
 ! D74   D(15,13,21,49)        127.6183         estimate D2E/DX2                !
 ! D75   D(15,13,21,50)        -99.2568         estimate D2E/DX2                !
 ! D76   D(12,14,18,5)        -121.3227         estimate D2E/DX2                !
 ! D77   D(12,14,18,19)          1.3379         estimate D2E/DX2                !
 ! D78   D(12,14,18,46)        122.5426         estimate D2E/DX2                !
 ! D79   D(22,14,18,5)         119.1434         estimate D2E/DX2                !
 ! D80   D(22,14,18,19)       -118.196          estimate D2E/DX2                !
 ! D81   D(22,14,18,46)          3.0087         estimate D2E/DX2                !
 ! D82   D(25,14,18,5)           6.2244         estimate D2E/DX2                !
 ! D83   D(25,14,18,19)        128.885          estimate D2E/DX2                !
 ! D84   D(25,14,18,46)       -109.9103         estimate D2E/DX2                !
 ! D85   D(12,14,22,7)         147.7141         estimate D2E/DX2                !
 ! D86   D(12,14,22,26)        -41.0273         estimate D2E/DX2                !
 ! D87   D(18,14,22,7)         -91.3837         estimate D2E/DX2                !
 ! D88   D(18,14,22,26)         79.8748         estimate D2E/DX2                !
 ! D89   D(25,14,22,7)          21.9818         estimate D2E/DX2                !
 ! D90   D(25,14,22,26)       -166.7597         estimate D2E/DX2                !
 ! D91   D(12,14,25,53)         75.4765         estimate D2E/DX2                !
 ! D92   D(12,14,25,54)       -166.4574         estimate D2E/DX2                !
 ! D93   D(12,14,25,55)        -46.5826         estimate D2E/DX2                !
 ! D94   D(18,14,25,53)        -50.93           estimate D2E/DX2                !
 ! D95   D(18,14,25,54)         67.1361         estimate D2E/DX2                !
 ! D96   D(18,14,25,55)       -172.9891         estimate D2E/DX2                !
 ! D97   D(22,14,25,53)       -161.1971         estimate D2E/DX2                !
 ! D98   D(22,14,25,54)        -43.1309         estimate D2E/DX2                !
 ! D99   D(22,14,25,55)         76.7438         estimate D2E/DX2                !
 ! D100  D(1,15,19,18)         -42.9013         estimate D2E/DX2                !
 ! D101  D(1,15,19,47)        -165.8422         estimate D2E/DX2                !
 ! D102  D(1,15,19,48)          75.7821         estimate D2E/DX2                !
 ! D103  D(13,15,19,18)         58.7892         estimate D2E/DX2                !
 ! D104  D(13,15,19,47)        -64.1518         estimate D2E/DX2                !
 ! D105  D(13,15,19,48)        177.4726         estimate D2E/DX2                !
 ! D106  D(44,15,19,18)       -170.1914         estimate D2E/DX2                !
 ! D107  D(44,15,19,47)         66.8676         estimate D2E/DX2                !
 ! D108  D(44,15,19,48)        -51.508          estimate D2E/DX2                !
 ! D109  D(3,16,17,4)           52.4657         estimate D2E/DX2                !
 ! D110  D(3,16,17,20)         166.4733         estimate D2E/DX2                !
 ! D111  D(3,16,17,23)         -67.589          estimate D2E/DX2                !
 ! D112  D(12,16,17,4)         178.5668         estimate D2E/DX2                !
 ! D113  D(12,16,17,20)        -67.4255         estimate D2E/DX2                !
 ! D114  D(12,16,17,23)         58.5122         estimate D2E/DX2                !
 ! D115  D(45,16,17,4)         -57.8683         estimate D2E/DX2                !
 ! D116  D(45,16,17,20)         56.1394         estimate D2E/DX2                !
 ! D117  D(45,16,17,23)       -177.923          estimate D2E/DX2                !
 ! D118  D(4,17,20,24)        -179.2553         estimate D2E/DX2                !
 ! D119  D(4,17,20,29)         -61.8072         estimate D2E/DX2                !
 ! D120  D(4,17,20,30)          54.6145         estimate D2E/DX2                !
 ! D121  D(16,17,20,24)         66.6501         estimate D2E/DX2                !
 ! D122  D(16,17,20,29)       -175.9018         estimate D2E/DX2                !
 ! D123  D(16,17,20,30)        -59.4801         estimate D2E/DX2                !
 ! D124  D(23,17,20,24)        -62.3066         estimate D2E/DX2                !
 ! D125  D(23,17,20,29)         55.1415         estimate D2E/DX2                !
 ! D126  D(23,17,20,30)        171.5632         estimate D2E/DX2                !
 ! D127  D(4,17,23,27)         150.7743         estimate D2E/DX2                !
 ! D128  D(4,17,23,51)          29.5391         estimate D2E/DX2                !
 ! D129  D(4,17,23,52)         -85.9218         estimate D2E/DX2                !
 ! D130  D(16,17,23,27)        -90.8275         estimate D2E/DX2                !
 ! D131  D(16,17,23,51)        147.9373         estimate D2E/DX2                !
 ! D132  D(16,17,23,52)         32.4765         estimate D2E/DX2                !
 ! D133  D(20,17,23,27)         35.8089         estimate D2E/DX2                !
 ! D134  D(20,17,23,51)        -85.4263         estimate D2E/DX2                !
 ! D135  D(20,17,23,52)        159.1129         estimate D2E/DX2                !
 ! D136  D(5,18,19,15)          73.5872         estimate D2E/DX2                !
 ! D137  D(5,18,19,47)        -165.6905         estimate D2E/DX2                !
 ! D138  D(5,18,19,48)         -47.0971         estimate D2E/DX2                !
 ! D139  D(14,18,19,15)        -51.5192         estimate D2E/DX2                !
 ! D140  D(14,18,19,47)         69.2031         estimate D2E/DX2                !
 ! D141  D(14,18,19,48)       -172.2036         estimate D2E/DX2                !
 ! D142  D(46,18,19,15)       -171.537          estimate D2E/DX2                !
 ! D143  D(46,18,19,47)        -50.8147         estimate D2E/DX2                !
 ! D144  D(46,18,19,48)         67.7787         estimate D2E/DX2                !
 ! D145  D(17,20,24,26)       -114.503          estimate D2E/DX2                !
 ! D146  D(17,20,24,28)         54.6274         estimate D2E/DX2                !
 ! D147  D(29,20,24,26)        127.8714         estimate D2E/DX2                !
 ! D148  D(29,20,24,28)        -62.9983         estimate D2E/DX2                !
 ! D149  D(30,20,24,26)          9.7418         estimate D2E/DX2                !
 ! D150  D(30,20,24,28)        178.8721         estimate D2E/DX2                !
 ! D151  D(17,20,29,58)        174.2361         estimate D2E/DX2                !
 ! D152  D(17,20,29,59)        -66.2645         estimate D2E/DX2                !
 ! D153  D(17,20,29,60)         54.9249         estimate D2E/DX2                !
 ! D154  D(24,20,29,58)        -70.6829         estimate D2E/DX2                !
 ! D155  D(24,20,29,59)         48.8165         estimate D2E/DX2                !
 ! D156  D(24,20,29,60)        170.006          estimate D2E/DX2                !
 ! D157  D(30,20,29,58)         53.5133         estimate D2E/DX2                !
 ! D158  D(30,20,29,59)        173.0126         estimate D2E/DX2                !
 ! D159  D(30,20,29,60)        -65.7979         estimate D2E/DX2                !
 ! D160  D(17,20,30,61)        172.4254         estimate D2E/DX2                !
 ! D161  D(17,20,30,62)        -67.4077         estimate D2E/DX2                !
 ! D162  D(17,20,30,63)         52.2979         estimate D2E/DX2                !
 ! D163  D(24,20,30,61)         51.7442         estimate D2E/DX2                !
 ! D164  D(24,20,30,62)        171.9111         estimate D2E/DX2                !
 ! D165  D(24,20,30,63)        -68.3833         estimate D2E/DX2                !
 ! D166  D(29,20,30,61)        -68.6072         estimate D2E/DX2                !
 ! D167  D(29,20,30,62)         51.5598         estimate D2E/DX2                !
 ! D168  D(29,20,30,63)        171.2653         estimate D2E/DX2                !
 ! D169  D(7,22,26,6)           -3.5574         estimate D2E/DX2                !
 ! D170  D(7,22,26,24)        -126.7007         estimate D2E/DX2                !
 ! D171  D(7,22,26,56)         111.0483         estimate D2E/DX2                !
 ! D172  D(14,22,26,6)        -175.0313         estimate D2E/DX2                !
 ! D173  D(14,22,26,24)         61.8255         estimate D2E/DX2                !
 ! D174  D(14,22,26,56)        -60.4255         estimate D2E/DX2                !
 ! D175  D(17,23,27,8)         124.9912         estimate D2E/DX2                !
 ! D176  D(17,23,27,28)          3.5987         estimate D2E/DX2                !
 ! D177  D(17,23,27,57)       -121.0071         estimate D2E/DX2                !
 ! D178  D(51,23,27,8)        -115.6934         estimate D2E/DX2                !
 ! D179  D(51,23,27,28)        122.9141         estimate D2E/DX2                !
 ! D180  D(51,23,27,57)         -1.6916         estimate D2E/DX2                !
 ! D181  D(52,23,27,8)           1.5195         estimate D2E/DX2                !
 ! D182  D(52,23,27,28)       -119.873          estimate D2E/DX2                !
 ! D183  D(52,23,27,57)        115.5212         estimate D2E/DX2                !
 ! D184  D(20,24,26,6)         -71.1355         estimate D2E/DX2                !
 ! D185  D(20,24,26,22)         49.4498         estimate D2E/DX2                !
 ! D186  D(20,24,26,56)        169.1252         estimate D2E/DX2                !
 ! D187  D(28,24,26,6)         119.7506         estimate D2E/DX2                !
 ! D188  D(28,24,26,22)       -119.6642         estimate D2E/DX2                !
 ! D189  D(28,24,26,56)          0.0113         estimate D2E/DX2                !
 ! D190  D(20,24,28,27)        -14.8829         estimate D2E/DX2                !
 ! D191  D(20,24,28,31)        173.1592         estimate D2E/DX2                !
 ! D192  D(26,24,28,27)        154.4144         estimate D2E/DX2                !
 ! D193  D(26,24,28,31)        -17.5434         estimate D2E/DX2                !
 ! D194  D(8,27,28,24)        -139.0571         estimate D2E/DX2                !
 ! D195  D(8,27,28,31)          33.7465         estimate D2E/DX2                !
 ! D196  D(23,27,28,24)        -15.8467         estimate D2E/DX2                !
 ! D197  D(23,27,28,31)        156.9569         estimate D2E/DX2                !
 ! D198  D(57,27,28,24)        108.2994         estimate D2E/DX2                !
 ! D199  D(57,27,28,31)        -78.897          estimate D2E/DX2                !
 ! D200  D(24,28,31,66)         92.7431         estimate D2E/DX2                !
 ! D201  D(24,28,31,67)       -149.8933         estimate D2E/DX2                !
 ! D202  D(24,28,31,68)        -29.6406         estimate D2E/DX2                !
 ! D203  D(27,28,31,66)        -79.8096         estimate D2E/DX2                !
 ! D204  D(27,28,31,67)         37.554          estimate D2E/DX2                !
 ! D205  D(27,28,31,68)        157.8067         estimate D2E/DX2                !
 ! D206  D(2,32,34,70)        -152.4766         estimate D2E/DX2                !
 ! D207  D(2,32,34,71)         -28.4331         estimate D2E/DX2                !
 ! D208  D(2,32,34,72)          90.1895         estimate D2E/DX2                !
 ! D209  D(9,32,34,70)          28.3713         estimate D2E/DX2                !
 ! D210  D(9,32,34,71)         152.4149         estimate D2E/DX2                !
 ! D211  D(9,32,34,72)         -88.9625         estimate D2E/DX2                !
 ! D212  D(3,33,36,38)        -167.8372         estimate D2E/DX2                !
 ! D213  D(3,33,36,39)          12.996          estimate D2E/DX2                !
 ! D214  D(10,33,36,38)         10.996          estimate D2E/DX2                !
 ! D215  D(10,33,36,39)       -168.1707         estimate D2E/DX2                !
 ! D216  D(6,35,37,73)          73.6281         estimate D2E/DX2                !
 ! D217  D(6,35,37,74)         -44.1424         estimate D2E/DX2                !
 ! D218  D(6,35,37,75)        -166.8384         estimate D2E/DX2                !
 ! D219  D(11,35,37,73)       -106.2735         estimate D2E/DX2                !
 ! D220  D(11,35,37,74)        135.956          estimate D2E/DX2                !
 ! D221  D(11,35,37,75)         13.26           estimate D2E/DX2                !
 ! D222  D(33,36,38,40)        179.3105         estimate D2E/DX2                !
 ! D223  D(33,36,38,76)         -0.4273         estimate D2E/DX2                !
 ! D224  D(39,36,38,40)         -1.4987         estimate D2E/DX2                !
 ! D225  D(39,36,38,76)        178.7636         estimate D2E/DX2                !
 ! D226  D(33,36,39,41)       -179.9935         estimate D2E/DX2                !
 ! D227  D(33,36,39,77)          4.1506         estimate D2E/DX2                !
 ! D228  D(38,36,39,41)          0.8715         estimate D2E/DX2                !
 ! D229  D(38,36,39,77)       -174.9844         estimate D2E/DX2                !
 ! D230  D(36,38,40,42)          0.8462         estimate D2E/DX2                !
 ! D231  D(36,38,40,78)       -179.4274         estimate D2E/DX2                !
 ! D232  D(76,38,40,42)       -179.4245         estimate D2E/DX2                !
 ! D233  D(76,38,40,78)          0.3019         estimate D2E/DX2                !
 ! D234  D(36,39,41,42)          0.3967         estimate D2E/DX2                !
 ! D235  D(36,39,41,79)       -178.9919         estimate D2E/DX2                !
 ! D236  D(77,39,41,42)        176.2363         estimate D2E/DX2                !
 ! D237  D(77,39,41,79)         -3.1523         estimate D2E/DX2                !
 ! D238  D(38,40,42,41)          0.4161         estimate D2E/DX2                !
 ! D239  D(38,40,42,80)        179.7226         estimate D2E/DX2                !
 ! D240  D(78,40,42,41)       -179.3101         estimate D2E/DX2                !
 ! D241  D(78,40,42,80)         -0.0035         estimate D2E/DX2                !
 ! D242  D(39,41,42,40)         -1.0445         estimate D2E/DX2                !
 ! D243  D(39,41,42,80)        179.6491         estimate D2E/DX2                !
 ! D244  D(79,41,42,40)        178.3418         estimate D2E/DX2                !
 ! D245  D(79,41,42,80)         -0.9645         estimate D2E/DX2                !
 --------------------------------------------------------------------------------
 Trust Radius=3.00D-01 FncErr=1.00D-07 GrdErr=1.00D-06 EigMax=2.50D+02 EigMin=1.00D-04
 Number of steps in this run=    480 maximum allowed number of steps=    480.
 GradGradGradGradGradGradGradGradGradGradGradGradGradGradGradGradGradGrad

 Stoichiometry    C31H38O11
 Framework group  C1[X(C31H38O11)]
 Deg. of freedom   234
 Full point group                 C1      NOp   1
 Largest Abelian subgroup         C1      NOp   1
 Largest concise Abelian subgroup C1      NOp   1
                         Standard orientation:                         
 ---------------------------------------------------------------------
 Center     Atomic      Atomic             Coordinates (Angstroms)
 Number     Number       Type             X           Y           Z
 ---------------------------------------------------------------------
      1          8           0       -0.587310    3.177938   -1.961839
      2          8           0       -1.097634    1.999294    1.182433
      3          8           0       -1.938288   -0.519914   -0.084479
      4          8           0       -0.987488   -2.722192    1.147485
      5          8           0        1.749423    2.550876   -3.102684
      6          8           0        4.248377   -1.390908   -0.009024
      7          8           0        2.911851   -1.027019   -2.193604
      8          8           0        0.412912    1.383710    3.441315
      9          8           0       -3.364992    2.338766    0.836167
     10          8           0       -1.986572   -1.881761   -1.959093
     11          8           0        5.368659    0.306121   -1.082230
     12          6           0        0.286437    0.659567   -0.274451
     13          6           0       -0.627445    1.891859   -0.228370
     14          6           0        1.250857    0.601794   -1.518518
     15          6           0        0.132025    3.185705   -0.622128
     16          6           0       -0.446886   -0.701355   -0.059466
     17          6           0       -0.125307   -1.537037    1.221061
     18          6           0        2.014347    2.010454   -1.788420
     19          6           0        1.639156    3.071279   -0.737796
     20          6           0        1.332221   -2.079828    1.187414
     21          6           0       -1.578211    2.151331   -1.425806
     22          6           0        2.417263   -0.387809   -1.264822
     23          6           0       -0.386008   -0.819088    2.562536
     24          6           0        2.233839   -0.840892    1.283593
     25          6           0        0.574303    0.174391   -2.842380
     26          6           0        3.126403   -0.446275    0.135741
     27          6           0        0.805565   -0.015349    3.181769
     28          6           0        2.062472    0.016597    2.309805
     29          6           0        1.576835   -2.990067    2.427517
     30          6           0        1.588970   -2.988110   -0.041002
     31          6           0        2.973142    1.196343    2.611991
     32          6           0       -2.403939    2.300094    1.592924
     33          6           0       -2.593138   -1.274523   -1.078959
     34          6           0       -2.415452    2.579546    3.079420
     35          6           0        5.304935   -0.876513   -0.767126
     36          6           0       -4.062408   -1.269675   -0.922454
     37          6           0        6.270630   -1.984317   -1.093616
     38          6           0       -4.776397   -2.196731   -1.696055
     39          6           0       -4.737786   -0.388793   -0.070417
     40          6           0       -6.162063   -2.264698   -1.595062
     41          6           0       -6.128552   -0.453842    0.016086
     42          6           0       -6.839706   -1.394510   -0.734017
     43          1           0        0.924080    0.798188    0.591348
     44          1           0       -0.195031    4.037122   -0.019243
     45          1           0       -0.243861   -1.364839   -0.892969
     46          1           0        3.092046    1.822058   -1.763784
     47          1           0        2.043169    2.830835    0.252278
     48          1           0        2.075330    4.021209   -1.062000
     49          1           0       -1.706399    1.322434   -2.114072
     50          1           0       -2.517556    2.614833   -1.148643
     51          1           0       -0.683661   -1.606704    3.259219
     52          1           0       -1.232458   -0.142647    2.440315
     53          1           0       -0.019586    0.987279   -3.251509
     54          1           0        1.355757   -0.064109   -3.562249
     55          1           0       -0.062549   -0.702473   -2.713098
     56          1           0        3.544021    0.550172    0.300074
     57          1           0        1.038652   -0.410814    4.175092
     58          1           0        2.567532   -3.446831    2.339089
     59          1           0        1.545622   -2.432262    3.365851
     60          1           0        0.812097   -3.770517    2.443680
     61          1           0        2.653182   -3.228919   -0.088208
     62          1           0        0.994665   -3.895789    0.081629
     63          1           0        1.314008   -2.540058   -0.994229
     64          1           0       -1.921667   -2.389604    1.233443
     65          1           0        0.803970    2.891494   -3.045510
     66          1           0        2.621818    2.122499    2.141688
     67          1           0        2.972493    1.383532    3.689441
     68          1           0        3.998719    1.004238    2.288724
     69          1           0        0.068474    1.737373    2.568589
     70          1           0       -3.400014    2.330938    3.478422
     71          1           0       -1.616535    2.037643    3.589128
     72          1           0       -2.248130    3.654310    3.231280
     73          1           0        5.809616   -2.617648   -1.860043
     74          1           0        6.450610   -2.598899   -0.208726
     75          1           0        7.200751   -1.564093   -1.475403
     76          1           0       -4.223469   -2.849541   -2.359720
     77          1           0       -4.191531    0.375520    0.460916
     78          1           0       -6.714373   -2.986323   -2.184830
     79          1           0       -6.658059    0.236604    0.661714
     80          1           0       -7.919842   -1.442776   -0.657193
 ---------------------------------------------------------------------
 Rotational constants (GHZ):           0.1342678           0.0686731           0.0665215
 Standard basis: 6-31G(d) (6D, 7F)
 There are   706 symmetry adapted cartesian basis functions of A   symmetry.
 There are   706 symmetry adapted basis functions of A   symmetry.
   706 basis functions,  1328 primitive gaussians,   706 cartesian basis functions
   156 alpha electrons      156 beta electrons
       nuclear repulsion energy      5919.5546658897 Hartrees.
 NAtoms=   80 NActive=   80 NUniq=   80 SFac= 1.00D+00 NAtFMM=   60 NAOKFM=T Big=T
 Integral buffers will be    131072 words long.
 Raffenetti 2 integral format.
 Two-electron integral symmetry is turned on.
 One-electron integrals computed using PRISM.
 NBasis=   706 RedAO= T EigKep=  4.37D-04  NBF=   706
 NBsUse=   706 1.00D-06 EigRej= -1.00D+00 NBFU=   706
 Initial guess from the checkpoint file:  "6WZ3_small_opt4.chk"
 B after Tr=    -0.000000   -0.000000    0.000000
         Rot=    1.000000    0.000000   -0.000000   -0.000000 Ang=   0.00 deg.
 Requested convergence on RMS density matrix=1.00D-08 within 128 cycles.
 Requested convergence on MAX density matrix=1.00D-06.
 Requested convergence on             energy=1.00D-06.
 No special actions if energy rises.
 SCF Done:  E(RB3LYP) =  -2031.53496256     A.U. after   13 cycles
            NFock= 13  Conv=0.51D-08     -V/T= 2.0095

 **********************************************************************

            Population analysis using the SCF Density.

 **********************************************************************

 Orbital symmetries:
       Occupied  (A) (A) (A) (A) (A) (A) (A) (A) (A) (A) (A) (A)
                 (A) (A) (A) (A) (A) (A) (A) (A) (A) (A) (A) (A)
                 (A) (A) (A) (A) (A) (A) (A) (A) (A) (A) (A) (A)
                 (A) (A) (A) (A) (A) (A) (A) (A) (A) (A) (A) (A)
                 (A) (A) (A) (A) (A) (A) (A) (A) (A) (A) (A) (A)
                 (A) (A) (A) (A) (A) (A) (A) (A) (A) (A) (A) (A)
                 (A) (A) (A) (A) (A) (A) (A) (A) (A) (A) (A) (A)
                 (A) (A) (A) (A) (A) (A) (A) (A) (A) (A) (A) (A)
                 (A) (A) (A) (A) (A) (A) (A) (A) (A) (A) (A) (A)
                 (A) (A) (A) (A) (A) (A) (A) (A) (A) (A) (A) (A)
                 (A) (A) (A) (A) (A) (A) (A) (A) (A) (A) (A) (A)
                 (A) (A) (A) (A) (A) (A) (A) (A) (A) (A) (A) (A)
                 (A) (A) (A) (A) (A) (A) (A) (A) (A) (A) (A) (A)
       Virtual   (A) (A) (A) (A) (A) (A) (A) (A) (A) (A) (A) (A)
                 (A) (A) (A) (A) (A) (A) (A) (A) (A) (A) (A) (A)
                 (A) (A) (A) (A) (A) (A) (A) (A) (A) (A) (A) (A)
                 (A) (A) (A) (A) (A) (A) (A) (A) (A) (A) (A) (A)
                 (A) (A) (A) (A) (A) (A) (A) (A) (A) (A) (A) (A)
                 (A) (A) (A) (A) (A) (A) (A) (A) (A) (A) (A) (A)
                 (A) (A) (A) (A) (A) (A) (A) (A) (A) (A) (A) (A)
                 (A) (A) (A) (A) (A) (A) (A) (A) (A) (A) (A) (A)
                 (A) (A) (A) (A) (A) (A) (A) (A) (A) (A) (A) (A)
                 (A) (A) (A) (A) (A) (A) (A) (A) (A) (A) (A) (A)
                 (A) (A) (A) (A) (A) (A) (A) (A) (A) (A) (A) (A)
                 (A) (A) (A) (A) (A) (A) (A) (A) (A) (A) (A) (A)
                 (A) (A) (A) (A) (A) (A) (A) (A) (A) (A) (A) (A)
                 (A) (A) (A) (A) (A) (A) (A) (A) (A) (A) (A) (A)
                 (A) (A) (A) (A) (A) (A) (A) (A) (A) (A) (A) (A)
                 (A) (A) (A) (A) (A) (A) (A) (A) (A) (A) (A) (A)
                 (A) (A) (A) (A) (A) (A) (A) (A) (A) (A) (A) (A)
                 (A) (A) (A) (A) (A) (A) (A) (A) (A) (A) (A) (A)
                 (A) (A) (A) (A) (A) (A) (A) (A) (A) (A) (A) (A)
                 (A) (A) (A) (A) (A) (A) (A) (A) (A) (A) (A) (A)
                 (A) (A) (A) (A) (A) (A) (A) (A) (A) (A) (A) (A)
                 (A) (A) (A) (A) (A) (A) (A) (A) (A) (A) (A) (A)
                 (A) (A) (A) (A) (A) (A) (A) (A) (A) (A) (A) (A)
                 (A) (A) (A) (A) (A) (A) (A) (A) (A) (A) (A) (A)
                 (A) (A) (A) (A) (A) (A) (A) (A) (A) (A) (A) (A)
                 (A) (A) (A) (A) (A) (A) (A) (A) (A) (A) (A) (A)
                 (A) (A) (A) (A) (A) (A) (A) (A) (A) (A) (A) (A)
                 (A) (A) (A) (A) (A) (A) (A) (A) (A) (A) (A) (A)
                 (A) (A) (A) (A) (A) (A) (A) (A) (A) (A) (A) (A)
                 (A) (A) (A) (A) (A) (A) (A) (A) (A) (A) (A) (A)
                 (A) (A) (A) (A) (A) (A) (A) (A) (A) (A) (A) (A)
                 (A) (A) (A) (A) (A) (A) (A) (A) (A) (A) (A) (A)
                 (A) (A) (A) (A) (A) (A) (A) (A) (A) (A) (A) (A)
                 (A) (A) (A) (A) (A) (A) (A) (A) (A) (A) (A) (A)
                 (A) (A) (A) (A) (A) (A) (A) (A) (A) (A) (A) (A)
                 (A) (A) (A) (A) (A) (A) (A) (A) (A) (A) (A) (A)
                 (A) (A) (A) (A) (A) (A) (A) (A) (A) (A) (A) (A)
                 (A) (A) (A) (A) (A) (A) (A) (A) (A) (A) (A) (A)
                 (A) (A) (A) (A) (A) (A) (A) (A) (A) (A) (A) (A)
                 (A) (A) (A) (A) (A) (A) (A) (A) (A) (A) (A) (A)
                 (A) (A) (A) (A) (A) (A) (A) (A) (A) (A) (A) (A)
                 (A) (A) (A) (A) (A) (A) (A) (A) (A) (A) (A) (A)
                 (A) (A) (A) (A) (A) (A) (A) (A) (A) (A) (A) (A)
                 (A) (A) (A) (A) (A) (A) (A) (A) (A) (A) (A) (A)
                 (A) (A) (A) (A) (A) (A) (A) (A) (A) (A) (A) (A)
                 (A) (A) (A) (A) (A) (A) (A) (A) (A) (A)
 The electronic state is 1-A.
 Alpha  occ. eigenvalues --  -19.22474 -19.20324 -19.18731 -19.17675 -19.17053
 Alpha  occ. eigenvalues --  -19.15438 -19.15287 -19.15237 -19.14960 -19.14101
 Alpha  occ. eigenvalues --  -19.12905 -10.35543 -10.33178 -10.32154 -10.29051
 Alpha  occ. eigenvalues --  -10.28699 -10.26687 -10.26337 -10.25938 -10.25721
 Alpha  occ. eigenvalues --  -10.25688 -10.25514 -10.24921 -10.22340 -10.22147
 Alpha  occ. eigenvalues --  -10.21541 -10.21237 -10.21234 -10.20984 -10.20972
 Alpha  occ. eigenvalues --  -10.20725 -10.20650 -10.20583 -10.20467 -10.20464
 Alpha  occ. eigenvalues --  -10.20402 -10.19684 -10.19565 -10.19339 -10.17591
 Alpha  occ. eigenvalues --  -10.16595 -10.16132  -1.11244  -1.09298  -1.08733
 Alpha  occ. eigenvalues --   -1.04739  -1.04062  -1.03301  -1.02406  -1.01149
 Alpha  occ. eigenvalues --   -1.00678  -1.00380  -0.99337  -0.87302  -0.86932
 Alpha  occ. eigenvalues --   -0.84586  -0.80219  -0.79365  -0.78767  -0.78070
 Alpha  occ. eigenvalues --   -0.77574  -0.76038  -0.75828  -0.75418  -0.73763
 Alpha  occ. eigenvalues --   -0.72683  -0.69635  -0.68534  -0.68474  -0.67757
 Alpha  occ. eigenvalues --   -0.66748  -0.64659  -0.64109  -0.62894  -0.62078
 Alpha  occ. eigenvalues --   -0.60628  -0.60200  -0.57508  -0.57343  -0.56483
 Alpha  occ. eigenvalues --   -0.54840  -0.54413  -0.53857  -0.52776  -0.52598
 Alpha  occ. eigenvalues --   -0.51349  -0.50931  -0.50816  -0.49957  -0.49623
 Alpha  occ. eigenvalues --   -0.48812  -0.48178  -0.47931  -0.47784  -0.47500
 Alpha  occ. eigenvalues --   -0.47152  -0.46780  -0.46492  -0.46379  -0.45953
 Alpha  occ. eigenvalues --   -0.45423  -0.45191  -0.44966  -0.44824  -0.44546
 Alpha  occ. eigenvalues --   -0.43872  -0.43759  -0.43536  -0.43261  -0.42688
 Alpha  occ. eigenvalues --   -0.42404  -0.42306  -0.41750  -0.41661  -0.41102
 Alpha  occ. eigenvalues --   -0.40908  -0.40636  -0.40313  -0.39820  -0.38805
 Alpha  occ. eigenvalues --   -0.38649  -0.38139  -0.37978  -0.37702  -0.37512
 Alpha  occ. eigenvalues --   -0.37416  -0.37213  -0.36920  -0.36755  -0.36366
 Alpha  occ. eigenvalues --   -0.36006  -0.35887  -0.35593  -0.35382  -0.34938
 Alpha  occ. eigenvalues --   -0.34836  -0.34156  -0.33738  -0.33166  -0.32616
 Alpha  occ. eigenvalues --   -0.32256  -0.31366  -0.31145  -0.30344  -0.30205
 Alpha  occ. eigenvalues --   -0.30146  -0.28911  -0.28283  -0.27827  -0.27319
 Alpha  occ. eigenvalues --   -0.27265  -0.26789  -0.26505  -0.26394  -0.25256
 Alpha  occ. eigenvalues --   -0.23796
 Alpha virt. eigenvalues --   -0.06006  -0.04153  -0.02922  -0.01553  -0.01379
 Alpha virt. eigenvalues --    0.00521   0.02872   0.03969   0.05378   0.06345
 Alpha virt. eigenvalues --    0.07020   0.07939   0.08319   0.08971   0.09630
 Alpha virt. eigenvalues --    0.09692   0.10490   0.11046   0.11561   0.11700
 Alpha virt. eigenvalues --    0.12450   0.12842   0.13094   0.13644   0.13774
 Alpha virt. eigenvalues --    0.14035   0.14293   0.14549   0.14683   0.14900
 Alpha virt. eigenvalues --    0.15093   0.15301   0.15834   0.15951   0.15973
 Alpha virt. eigenvalues --    0.16328   0.16538   0.16648   0.16954   0.17237
 Alpha virt. eigenvalues --    0.17730   0.17806   0.17977   0.18311   0.18569
 Alpha virt. eigenvalues --    0.19253   0.19708   0.19922   0.20049   0.20609
 Alpha virt. eigenvalues --    0.20921   0.21178   0.21439   0.21748   0.22066
 Alpha virt. eigenvalues --    0.22355   0.23008   0.23135   0.23596   0.24033
 Alpha virt. eigenvalues --    0.25034   0.25511   0.25761   0.26058   0.26414
 Alpha virt. eigenvalues --    0.26824   0.27257   0.27643   0.28108   0.28518
 Alpha virt. eigenvalues --    0.28621   0.28999   0.29546   0.29637   0.30483
 Alpha virt. eigenvalues --    0.30633   0.30726   0.31615   0.31974   0.32781
 Alpha virt. eigenvalues --    0.34007   0.35180   0.35493   0.36835   0.37328
 Alpha virt. eigenvalues --    0.37601   0.38788   0.39627   0.41125   0.44584
 Alpha virt. eigenvalues --    0.45718   0.48126   0.48942   0.49997   0.50255
 Alpha virt. eigenvalues --    0.50799   0.51077   0.51728   0.51792   0.52385
 Alpha virt. eigenvalues --    0.52642   0.52981   0.53402   0.53743   0.54301
 Alpha virt. eigenvalues --    0.54656   0.54904   0.55672   0.55792   0.56162
 Alpha virt. eigenvalues --    0.56688   0.56942   0.57355   0.57571   0.57785
 Alpha virt. eigenvalues --    0.57977   0.58347   0.58413   0.58838   0.59178
 Alpha virt. eigenvalues --    0.59529   0.59887   0.60065   0.60355   0.60419
 Alpha virt. eigenvalues --    0.60709   0.60855   0.61538   0.61829   0.62289
 Alpha virt. eigenvalues --    0.62381   0.62889   0.63254   0.63548   0.64614
 Alpha virt. eigenvalues --    0.64677   0.65493   0.65685   0.65816   0.66125
 Alpha virt. eigenvalues --    0.66601   0.66769   0.67960   0.68139   0.68331
 Alpha virt. eigenvalues --    0.69159   0.69809   0.70959   0.71353   0.72018
 Alpha virt. eigenvalues --    0.72578   0.73577   0.73745   0.74867   0.75084
 Alpha virt. eigenvalues --    0.75245   0.76105   0.76428   0.77459   0.78016
 Alpha virt. eigenvalues --    0.78700   0.79253   0.80034   0.80632   0.80912
 Alpha virt. eigenvalues --    0.81657   0.82040   0.82255   0.82462   0.83175
 Alpha virt. eigenvalues --    0.83249   0.83331   0.83909   0.84036   0.84936
 Alpha virt. eigenvalues --    0.85156   0.85670   0.85787   0.86225   0.86698
 Alpha virt. eigenvalues --    0.87132   0.87275   0.88087   0.88304   0.89035
 Alpha virt. eigenvalues --    0.89452   0.89743   0.89802   0.89877   0.90390
 Alpha virt. eigenvalues --    0.90706   0.91031   0.91693   0.91770   0.92620
 Alpha virt. eigenvalues --    0.92713   0.93089   0.93221   0.93506   0.94292
 Alpha virt. eigenvalues --    0.94530   0.94857   0.95101   0.95973   0.96160
 Alpha virt. eigenvalues --    0.96401   0.97143   0.97715   0.97969   0.98331
 Alpha virt. eigenvalues --    0.99430   1.00065   1.00251   1.01081   1.01410
 Alpha virt. eigenvalues --    1.02319   1.03097   1.03443   1.03671   1.04459
 Alpha virt. eigenvalues --    1.04714   1.05830   1.06520   1.06787   1.07363
 Alpha virt. eigenvalues --    1.08059   1.08152   1.08836   1.09246   1.10867
 Alpha virt. eigenvalues --    1.11468   1.11737   1.12086   1.13198   1.13796
 Alpha virt. eigenvalues --    1.14585   1.15249   1.16168   1.16291   1.17225
 Alpha virt. eigenvalues --    1.17427   1.18006   1.18676   1.19160   1.19575
 Alpha virt. eigenvalues --    1.20305   1.20842   1.21602   1.22188   1.22905
 Alpha virt. eigenvalues --    1.23458   1.24098   1.24571   1.25042   1.25802
 Alpha virt. eigenvalues --    1.26403   1.27341   1.27724   1.28600   1.29486
 Alpha virt. eigenvalues --    1.30117   1.30974   1.32239   1.32613   1.33468
 Alpha virt. eigenvalues --    1.34751   1.35094   1.35839   1.36541   1.36757
 Alpha virt. eigenvalues --    1.38361   1.38751   1.39292   1.40018   1.41629
 Alpha virt. eigenvalues --    1.41667   1.42288   1.42455   1.43395   1.43611
 Alpha virt. eigenvalues --    1.44167   1.45235   1.45987   1.47093   1.47499
 Alpha virt. eigenvalues --    1.47642   1.48117   1.48666   1.49903   1.50459
 Alpha virt. eigenvalues --    1.51110   1.52874   1.53356   1.53609   1.55771
 Alpha virt. eigenvalues --    1.57252   1.57398   1.58463   1.59320   1.60019
 Alpha virt. eigenvalues --    1.61246   1.61447   1.62291   1.63406   1.63949
 Alpha virt. eigenvalues --    1.64532   1.65286   1.66219   1.67381   1.67695
 Alpha virt. eigenvalues --    1.67898   1.68999   1.69997   1.70724   1.70858
 Alpha virt. eigenvalues --    1.72230   1.72830   1.72913   1.73157   1.74240
 Alpha virt. eigenvalues --    1.74972   1.75815   1.76022   1.76986   1.77531
 Alpha virt. eigenvalues --    1.77581   1.77927   1.78061   1.78946   1.79142
 Alpha virt. eigenvalues --    1.79837   1.80000   1.80639   1.80947   1.81254
 Alpha virt. eigenvalues --    1.81464   1.82042   1.82915   1.83441   1.83991
 Alpha virt. eigenvalues --    1.84639   1.84878   1.85819   1.86582   1.87020
 Alpha virt. eigenvalues --    1.88009   1.88173   1.88326   1.88962   1.89501
 Alpha virt. eigenvalues --    1.89842   1.90336   1.90754   1.90967   1.91464
 Alpha virt. eigenvalues --    1.91674   1.91955   1.93192   1.93522   1.93962
 Alpha virt. eigenvalues --    1.94771   1.95204   1.95670   1.96786   1.97479
 Alpha virt. eigenvalues --    1.97635   1.98341   1.98551   1.99347   1.99804
 Alpha virt. eigenvalues --    2.00512   2.01313   2.02083   2.02917   2.03508
 Alpha virt. eigenvalues --    2.03887   2.04634   2.05053   2.06330   2.06567
 Alpha virt. eigenvalues --    2.07212   2.07717   2.08117   2.08532   2.09194
 Alpha virt. eigenvalues --    2.10275   2.10865   2.11830   2.12514   2.12736
 Alpha virt. eigenvalues --    2.13648   2.13725   2.13996   2.14568   2.15181
 Alpha virt. eigenvalues --    2.16088   2.16423   2.17162   2.17554   2.18011
 Alpha virt. eigenvalues --    2.19286   2.20173   2.20671   2.21279   2.22095
 Alpha virt. eigenvalues --    2.23294   2.23799   2.24179   2.25002   2.25774
 Alpha virt. eigenvalues --    2.26133   2.27406   2.27701   2.28182   2.28808
 Alpha virt. eigenvalues --    2.29057   2.29418   2.30521   2.30699   2.31566
 Alpha virt. eigenvalues --    2.32733   2.33982   2.34622   2.35343   2.36524
 Alpha virt. eigenvalues --    2.37018   2.37356   2.37939   2.38417   2.39178
 Alpha virt. eigenvalues --    2.39526   2.40734   2.41194   2.41814   2.42204
 Alpha virt. eigenvalues --    2.43026   2.43864   2.44687   2.45174   2.45399
 Alpha virt. eigenvalues --    2.45602   2.46415   2.47552   2.48259   2.50120
 Alpha virt. eigenvalues --    2.50271   2.51210   2.51755   2.52867   2.53868
 Alpha virt. eigenvalues --    2.55699   2.56280   2.57203   2.57978   2.58730
 Alpha virt. eigenvalues --    2.59524   2.60383   2.61254   2.62003   2.62992
 Alpha virt. eigenvalues --    2.63686   2.64259   2.64815   2.65609   2.66516
 Alpha virt. eigenvalues --    2.67505   2.68934   2.69341   2.69596   2.71805
 Alpha virt. eigenvalues --    2.72264   2.72529   2.73067   2.73392   2.74659
 Alpha virt. eigenvalues --    2.76906   2.78026   2.79265   2.80304   2.81774
 Alpha virt. eigenvalues --    2.82182   2.83030   2.83301   2.84548   2.87606
 Alpha virt. eigenvalues --    2.89237   2.90388   2.91299   2.93842   2.94945
 Alpha virt. eigenvalues --    2.95992   2.96916   2.98400   2.99118   2.99319
 Alpha virt. eigenvalues --    3.00930   3.03203   3.04378   3.04949   3.06598
 Alpha virt. eigenvalues --    3.08556   3.09816   3.10140   3.14408   3.16015
 Alpha virt. eigenvalues --    3.18105   3.24717   3.41567   3.93280   3.95714
 Alpha virt. eigenvalues --    3.96957   4.01462   4.02146   4.07021   4.07454
 Alpha virt. eigenvalues --    4.08011   4.08880   4.10773   4.11202   4.13534
 Alpha virt. eigenvalues --    4.16054   4.19075   4.22064   4.24764   4.26475
 Alpha virt. eigenvalues --    4.26822   4.29966   4.31728   4.33956   4.35763
 Alpha virt. eigenvalues --    4.36934   4.41224   4.41837   4.44419   4.45618
 Alpha virt. eigenvalues --    4.46872   4.48409   4.51262   4.54596   4.55963
 Alpha virt. eigenvalues --    4.60889   4.65732   4.70872   4.72016   4.74843
 Alpha virt. eigenvalues --    4.76243   4.84403   4.88790   4.92512   4.99136
          Condensed to atoms (all electrons):
 Mulliken charges:
               1
     1  O   -0.558202
     2  O   -0.560151
     3  O   -0.557939
     4  O   -0.657559
     5  O   -0.645727
     6  O   -0.484070
     7  O   -0.456194
     8  O   -0.672608
     9  O   -0.452335
    10  O   -0.474918
    11  O   -0.475019
    12  C   -0.188684
    13  C    0.265458
    14  C   -0.038272
    15  C    0.132667
    16  C    0.081484
    17  C    0.308584
    18  C    0.098208
    19  C   -0.330262
    20  C    0.003152
    21  C   -0.050119
    22  C    0.432245
    23  C   -0.364614
    24  C    0.102074
    25  C   -0.477902
    26  C   -0.032751
    27  C    0.086610
    28  C    0.030033
    29  C   -0.459179
    30  C   -0.499132
    31  C   -0.508712
    32  C    0.634330
    33  C    0.586325
    34  C   -0.565888
    35  C    0.638553
    36  C    0.035330
    37  C   -0.528271
    38  C   -0.143853
    39  C   -0.165187
    40  C   -0.140150
    41  C   -0.150117
    42  C   -0.113764
    43  H    0.149140
    44  H    0.150893
    45  H    0.209760
    46  H    0.186407
    47  H    0.156623
    48  H    0.179493
    49  H    0.181918
    50  H    0.205921
    51  H    0.165462
    52  H    0.158753
    53  H    0.140332
    54  H    0.194720
    55  H    0.182060
    56  H    0.191454
    57  H    0.160227
    58  H    0.153405
    59  H    0.138765
    60  H    0.172498
    61  H    0.170186
    62  H    0.169786
    63  H    0.170825
    64  H    0.395598
    65  H    0.429201
    66  H    0.164473
    67  H    0.176043
    68  H    0.168678
    69  H    0.428020
    70  H    0.187972
    71  H    0.225485
    72  H    0.194311
    73  H    0.205283
    74  H    0.181531
    75  H    0.182923
    76  H    0.169783
    77  H    0.193318
    78  H    0.142705
    79  H    0.141428
    80  H    0.141148
 Sum of Mulliken charges =  -0.00000
 Mulliken charges with hydrogens summed into heavy atoms:
               1
     1  O   -0.558202
     2  O   -0.560151
     3  O   -0.557939
     4  O   -0.261961
     5  O   -0.216525
     6  O   -0.484070
     7  O   -0.456194
     8  O   -0.244588
     9  O   -0.452335
    10  O   -0.474918
    11  O   -0.475019
    12  C   -0.039544
    13  C    0.265458
    14  C   -0.038272
    15  C    0.283560
    16  C    0.291245
    17  C    0.308584
    18  C    0.284615
    19  C    0.005853
    20  C    0.003152
    21  C    0.337720
    22  C    0.432245
    23  C   -0.040398
    24  C    0.102074
    25  C    0.039210
    26  C    0.158703
    27  C    0.246837
    28  C    0.030033
    29  C    0.005490
    30  C    0.011665
    31  C    0.000483
    32  C    0.634330
    33  C    0.586325
    34  C    0.041880
    35  C    0.638553
    36  C    0.035330
    37  C    0.041466
    38  C    0.025931
    39  C    0.028130
    40  C    0.002554
    41  C   -0.008689
    42  C    0.027384
 Electronic spatial extent (au):  <R**2>=          18735.7706
 Charge=             -0.0000 electrons
 Dipole moment (field-independent basis, Debye):
    X=             -3.5414    Y=              0.3130    Z=              5.4464  Tot=              6.5040
 Quadrupole moment (field-independent basis, Debye-Ang):
   XX=           -226.2042   YY=           -244.7229   ZZ=           -258.2798
   XY=             -5.0173   XZ=              8.0907   YZ=              8.6539
 Traceless Quadrupole moment (field-independent basis, Debye-Ang):
   XX=             16.8648   YY=             -1.6539   ZZ=            -15.2108
   XY=             -5.0173   XZ=              8.0907   YZ=              8.6539
 Octapole moment (field-independent basis, Debye-Ang**2):
  XXX=           -107.1492  YYY=             44.9514  ZZZ=             35.9292  XYY=              9.9951
  XXY=           -109.9025  XXZ=             20.6636  XZZ=            -42.7553  YZZ=            -22.4901
  YYZ=             22.2716  XYZ=             -3.9977
 Hexadecapole moment (field-independent basis, Debye-Ang**3):
 XXXX=         -12813.8640 YYYY=          -5245.5174 ZZZZ=          -4905.1093 XXXY=           -110.1204
 XXXZ=             74.0719 YYYX=            -52.4067 YYYZ=            160.4412 ZZZX=            -13.6681
 ZZZY=             29.9402 XXYY=          -3148.5652 XXZZ=          -3195.3587 YYZZ=          -1729.7910
 XXYZ=            258.2684 YYXZ=              1.0241 ZZXY=           -101.5374
 N-N= 5.919554665890D+03 E-N=-1.657598214082D+04  KE= 2.012416360542D+03
 Calling FoFJK, ICntrl=      2127 FMM=T ISym2X=0 I1Cent= 0 IOpClX= 0 NMat=1 NMatS=1 NMatT=0.
 ***** Axes restored to original set *****
 -------------------------------------------------------------------
 Center     Atomic                   Forces (Hartrees/Bohr)
 Number     Number              X              Y              Z
 -------------------------------------------------------------------
      1        8          -0.014017181   -0.019534863    0.025820525
      2        8          -0.015241635    0.008676256   -0.009262335
      3        8           0.010595831   -0.010235224   -0.019090762
      4        8          -0.010116680    0.019952367    0.009534324
      5        8          -0.012141365   -0.004577907    0.018180389
      6        8           0.006238587    0.023194014    0.000472233
      7        8          -0.013426245    0.009809513    0.025305056
      8        8           0.000181894   -0.008367987   -0.021581235
      9        8           0.019717927   -0.006558738    0.021666111
     10        8          -0.016770754    0.008404895    0.021277735
     11        8           0.002227324   -0.028116375   -0.002359894
     12        6          -0.006219191   -0.001342034   -0.001232039
     13        6          -0.003226721    0.006885141    0.004695056
     14        6           0.003131177    0.003421621   -0.007692281
     15        6          -0.013485566   -0.004560668   -0.020781598
     16        6          -0.017793811    0.000015253   -0.000835588
     17        6          -0.011421306   -0.010894957   -0.005902215
     18        6          -0.005510464    0.009579114   -0.009816601
     19        6          -0.001462029    0.002615654   -0.007382205
     20        6           0.000981630   -0.002737272   -0.000037254
     21        6           0.024176711    0.014107149    0.010430918
     22        6           0.013916117   -0.006525098   -0.020439477
     23        6           0.003598959   -0.000658968    0.000764201
     24        6           0.002129943   -0.003116321   -0.000936291
     25        6           0.000500916   -0.001437718    0.002653533
     26        6           0.013697017   -0.014223912   -0.009675400
     27        6          -0.003683147    0.015741557    0.001055929
     28        6           0.001727996    0.003730859    0.007298910
     29        6          -0.000079973    0.004198452   -0.003606233
     30        6          -0.001121296    0.001874331    0.004856562
     31        6          -0.001194073   -0.004555312   -0.002688763
     32        6           0.000581483    0.004480196   -0.022093937
     33        6           0.025279787   -0.001806792   -0.001608445
     34        6          -0.002260768    0.002481390   -0.004744275
     35        6          -0.018496056    0.013393234    0.010767462
     36        6           0.001211546   -0.000267238   -0.002995452
     37        6          -0.000964228    0.004857127    0.000166785
     38        6          -0.002479873   -0.000396932    0.000597033
     39        6          -0.003430093    0.000649380   -0.001928930
     40        6           0.000514887    0.001287682    0.002068370
     41        6           0.000710259   -0.001219578   -0.001691890
     42        6           0.002780035    0.000000560    0.000071619
     43        1          -0.001005830    0.003296822   -0.001642485
     44        1          -0.000450189    0.002757403   -0.000917068
     45        1          -0.000853194    0.001607903    0.000918430
     46        1          -0.000521243    0.002683130   -0.000995628
     47        1           0.000624679    0.001255056    0.000706112
[...]
 The electronic state is 1-A.
 Alpha  occ. eigenvalues --  -19.21707 -19.20548 -19.19161 -19.16925 -19.15659
 Alpha  occ. eigenvalues --  -19.15388 -19.15354 -19.14950 -19.14705 -19.13718
 Alpha  occ. eigenvalues --  -19.13510 -10.34096 -10.33071 -10.31831 -10.28402
 Alpha  occ. eigenvalues --  -10.28323 -10.26191 -10.26036 -10.26018 -10.25854
 Alpha  occ. eigenvalues --  -10.25345 -10.24872 -10.24696 -10.22494 -10.22425
 Alpha  occ. eigenvalues --  -10.21612 -10.21375 -10.21121 -10.21035 -10.20892
 Alpha  occ. eigenvalues --  -10.20831 -10.20670 -10.20667 -10.20602 -10.20530
 Alpha  occ. eigenvalues --  -10.20081 -10.19417 -10.19349 -10.19234 -10.17697
 Alpha  occ. eigenvalues --  -10.16963 -10.16503  -1.11935  -1.11134  -1.10400
 Alpha  occ. eigenvalues --   -1.06493  -1.05025  -1.03873  -1.03663  -1.02712
 Alpha  occ. eigenvalues --   -1.01992  -1.01560  -1.01412  -0.87226  -0.86618
 Alpha  occ. eigenvalues --   -0.84135  -0.80222  -0.79076  -0.78737  -0.78187
 Alpha  occ. eigenvalues --   -0.77558  -0.76171  -0.75864  -0.75006  -0.73681
 Alpha  occ. eigenvalues --   -0.72660  -0.69545  -0.68710  -0.68450  -0.67873
 Alpha  occ. eigenvalues --   -0.67152  -0.64813  -0.63950  -0.63096  -0.62178
 Alpha  occ. eigenvalues --   -0.61182  -0.60592  -0.57848  -0.57653  -0.57168
 Alpha  occ. eigenvalues --   -0.55346  -0.54844  -0.54231  -0.52783  -0.52296
 Alpha  occ. eigenvalues --   -0.51501  -0.51213  -0.50504  -0.49861  -0.49801
 Alpha  occ. eigenvalues --   -0.48852  -0.48259  -0.48004  -0.47855  -0.47735
 Alpha  occ. eigenvalues --   -0.47235  -0.47167  -0.46872  -0.46771  -0.46028
 Alpha  occ. eigenvalues --   -0.45683  -0.45540  -0.45269  -0.45020  -0.44364
 Alpha  occ. eigenvalues --   -0.44132  -0.43762  -0.43570  -0.43155  -0.42879
 Alpha  occ. eigenvalues --   -0.42448  -0.42183  -0.41853  -0.41413  -0.41177
 Alpha  occ. eigenvalues --   -0.40884  -0.40659  -0.40391  -0.39509  -0.38909
 Alpha  occ. eigenvalues --   -0.38635  -0.38367  -0.38106  -0.37696  -0.37565
 Alpha  occ. eigenvalues --   -0.37384  -0.37037  -0.36922  -0.36812  -0.36377
 Alpha  occ. eigenvalues --   -0.36141  -0.35978  -0.35730  -0.35650  -0.35293
 Alpha  occ. eigenvalues --   -0.34707  -0.34280  -0.33421  -0.33190  -0.32945
 Alpha  occ. eigenvalues --   -0.32234  -0.31598  -0.31236  -0.30670  -0.30005
 Alpha  occ. eigenvalues --   -0.29236  -0.28801  -0.28367  -0.27727  -0.27324
 Alpha  occ. eigenvalues --   -0.27012  -0.26815  -0.26595  -0.26495  -0.25167
 Alpha  occ. eigenvalues --   -0.23735
 Alpha virt. eigenvalues --   -0.05770  -0.03409  -0.01746  -0.01235  -0.00815
 Alpha virt. eigenvalues --    0.01202   0.04249   0.04769   0.05291   0.06300
 Alpha virt. eigenvalues --    0.08062   0.08105   0.08499   0.09360   0.09646
 Alpha virt. eigenvalues --    0.09840   0.10578   0.11030   0.11801   0.12057
 Alpha virt. eigenvalues --    0.12560   0.12931   0.13213   0.13624   0.13816
 Alpha virt. eigenvalues --    0.13908   0.14149   0.14584   0.14785   0.14975
 Alpha virt. eigenvalues --    0.15115   0.15459   0.15673   0.15977   0.16212
 Alpha virt. eigenvalues --    0.16459   0.16619   0.16883   0.17046   0.17540
 Alpha virt. eigenvalues --    0.17872   0.17890   0.18234   0.18452   0.18758
 Alpha virt. eigenvalues --    0.19247   0.19322   0.19791   0.20110   0.20373
 Alpha virt. eigenvalues --    0.20697   0.21658   0.22041   0.22380   0.22487
 Alpha virt. eigenvalues --    0.22663   0.22940   0.23638   0.24195   0.24310
 Alpha virt. eigenvalues --    0.25136   0.25817   0.26033   0.26045   0.26468
 Alpha virt. eigenvalues --    0.27072   0.27411   0.28088   0.28612   0.28808
 Alpha virt. eigenvalues --    0.28841   0.29008   0.29597   0.30067   0.30591
 Alpha virt. eigenvalues --    0.30799   0.31233   0.31592   0.32499   0.32742
 Alpha virt. eigenvalues --    0.34113   0.34666   0.35873   0.36766   0.37380
 Alpha virt. eigenvalues --    0.38313   0.38752   0.40030   0.41446   0.44675
 Alpha virt. eigenvalues --    0.46011   0.48362   0.49383   0.49642   0.49952
 Alpha virt. eigenvalues --    0.50611   0.51036   0.51756   0.51895   0.52264
 Alpha virt. eigenvalues --    0.52926   0.53114   0.53480   0.53900   0.54014
 Alpha virt. eigenvalues --    0.54598   0.54928   0.55449   0.55629   0.55899
 Alpha virt. eigenvalues --    0.56452   0.56718   0.57308   0.57599   0.57798
 Alpha virt. eigenvalues --    0.58044   0.58313   0.58505   0.59012   0.59192
 Alpha virt. eigenvalues --    0.59385   0.59677   0.59917   0.60205   0.60736
 Alpha virt. eigenvalues --    0.60895   0.61084   0.61187   0.61751   0.61851
 Alpha virt. eigenvalues --    0.62831   0.63309   0.63724   0.64005   0.64662
 Alpha virt. eigenvalues --    0.64773   0.65177   0.65969   0.66346   0.66985
 Alpha virt. eigenvalues --    0.67373   0.67870   0.68156   0.68929   0.69207
 Alpha virt. eigenvalues --    0.69824   0.70230   0.70905   0.71559   0.72114
 Alpha virt. eigenvalues --    0.72978   0.73937   0.74040   0.74669   0.75345
 Alpha virt. eigenvalues --    0.76275   0.76409   0.76921   0.77702   0.77850
 Alpha virt. eigenvalues --    0.79024   0.79819   0.80614   0.80788   0.81159
 Alpha virt. eigenvalues --    0.81754   0.82126   0.82404   0.82665   0.82900
 Alpha virt. eigenvalues --    0.83111   0.83582   0.83625   0.84155   0.84782
 Alpha virt. eigenvalues --    0.84899   0.85216   0.85357   0.85996   0.86455
 Alpha virt. eigenvalues --    0.87059   0.87146   0.87516   0.88204   0.88589
 Alpha virt. eigenvalues --    0.88822   0.89146   0.89422   0.89698   0.89850
 Alpha virt. eigenvalues --    0.90472   0.90649   0.90843   0.91281   0.91568
 Alpha virt. eigenvalues --    0.91784   0.92047   0.92904   0.92996   0.94007
 Alpha virt. eigenvalues --    0.94365   0.95048   0.95288   0.95343   0.95725
 Alpha virt. eigenvalues --    0.96379   0.96563   0.96871   0.97543   0.98588
 Alpha virt. eigenvalues --    0.98651   0.98958   1.00049   1.00193   1.01250
 Alpha virt. eigenvalues --    1.01519   1.02348   1.02577   1.03101   1.04070
 Alpha virt. eigenvalues --    1.04678   1.04882   1.05508   1.06043   1.07041
 Alpha virt. eigenvalues --    1.07176   1.07389   1.07883   1.09588   1.10188
 Alpha virt. eigenvalues --    1.10937   1.11135   1.11656   1.12262   1.12829
 Alpha virt. eigenvalues --    1.13371   1.13749   1.14161   1.15222   1.15284
 Alpha virt. eigenvalues --    1.16004   1.16595   1.17095   1.18280   1.18955
 Alpha virt. eigenvalues --    1.19513   1.20113   1.20279   1.20501   1.21435
 Alpha virt. eigenvalues --    1.22107   1.22727   1.24236   1.24451   1.24800
 Alpha virt. eigenvalues --    1.25842   1.26409   1.26987   1.27951   1.28757
 Alpha virt. eigenvalues --    1.29733   1.30391   1.31227   1.31663   1.33184
 Alpha virt. eigenvalues --    1.33381   1.34301   1.34423   1.35860   1.36795
 Alpha virt. eigenvalues --    1.37336   1.38652   1.38967   1.39713   1.40792
 Alpha virt. eigenvalues --    1.41380   1.41759   1.42178   1.42992   1.43334
 Alpha virt. eigenvalues --    1.44035   1.45131   1.46040   1.46343   1.47312
 Alpha virt. eigenvalues --    1.47599   1.48111   1.49492   1.49738   1.49933
 Alpha virt. eigenvalues --    1.50011   1.51702   1.52631   1.53222   1.55090
 Alpha virt. eigenvalues --    1.57291   1.57785   1.58431   1.59510   1.60785
 Alpha virt. eigenvalues --    1.61073   1.61885   1.62744   1.63295   1.64030
 Alpha virt. eigenvalues --    1.64311   1.65198   1.66008   1.66848   1.67760
 Alpha virt. eigenvalues --    1.68454   1.69213   1.70376   1.70537   1.71137
 Alpha virt. eigenvalues --    1.71914   1.72389   1.73020   1.73453   1.74655
 Alpha virt. eigenvalues --    1.74850   1.75498   1.76217   1.76736   1.77106
 Alpha virt. eigenvalues --    1.77414   1.77578   1.78490   1.78797   1.79573
 Alpha virt. eigenvalues --    1.79807   1.80002   1.80432   1.80884   1.81257
 Alpha virt. eigenvalues --    1.81515   1.81792   1.82721   1.83497   1.84369
 Alpha virt. eigenvalues --    1.85355   1.85666   1.86150   1.86763   1.87562
 Alpha virt. eigenvalues --    1.87796   1.88573   1.88894   1.89233   1.89495
 Alpha virt. eigenvalues --    1.90426   1.90833   1.90913   1.91353   1.92301
 Alpha virt. eigenvalues --    1.93007   1.93185   1.93880   1.94147   1.94626
 Alpha virt. eigenvalues --    1.95825   1.96432   1.96587   1.97514   1.97639
 Alpha virt. eigenvalues --    1.98246   1.99087   1.99309   2.00341   2.00844
 Alpha virt. eigenvalues --    2.01489   2.01673   2.02421   2.03164   2.03543
 Alpha virt. eigenvalues --    2.04516   2.05192   2.06073   2.06780   2.07145
 Alpha virt. eigenvalues --    2.08015   2.08566   2.08696   2.09676   2.10384
 Alpha virt. eigenvalues --    2.10505   2.11464   2.12417   2.12756   2.13396
 Alpha virt. eigenvalues --    2.13600   2.14258   2.14583   2.15197   2.16066
 Alpha virt. eigenvalues --    2.16504   2.17115   2.17710   2.18513   2.19391
 Alpha virt. eigenvalues --    2.20274   2.20874   2.21699   2.22000   2.22499
 Alpha virt. eigenvalues --    2.23517   2.24070   2.25424   2.25673   2.26402
 Alpha virt. eigenvalues --    2.27375   2.27809   2.28237   2.28919   2.29328
 Alpha virt. eigenvalues --    2.29683   2.30350   2.31002   2.32752   2.33348
 Alpha virt. eigenvalues --    2.33421   2.34272   2.35212   2.36001   2.36460
 Alpha virt. eigenvalues --    2.37417   2.37780   2.39046   2.39627   2.40628
 Alpha virt. eigenvalues --    2.40997   2.41865   2.42479   2.43503   2.44003
 Alpha virt. eigenvalues --    2.44818   2.45112   2.45925   2.46565   2.46998
 Alpha virt. eigenvalues --    2.48029   2.48444   2.48766   2.49347   2.49596
 Alpha virt. eigenvalues --    2.51708   2.52446   2.52577   2.54088   2.55100
 Alpha virt. eigenvalues --    2.56637   2.57302   2.57658   2.57905   2.59153
 Alpha virt. eigenvalues --    2.60099   2.61621   2.62532   2.63430   2.65011
 Alpha virt. eigenvalues --    2.65133   2.65504   2.66764   2.67077   2.67194
 Alpha virt. eigenvalues --    2.68886   2.69775   2.70540   2.71684   2.72613
 Alpha virt. eigenvalues --    2.73136   2.73799   2.73879   2.74965   2.76671
 Alpha virt. eigenvalues --    2.77471   2.78525   2.80618   2.81565   2.82693
 Alpha virt. eigenvalues --    2.83086   2.84472   2.84968   2.85490   2.88069
 Alpha virt. eigenvalues --    2.90717   2.91214   2.92399   2.94549   2.96329
 Alpha virt. eigenvalues --    2.97296   2.98544   2.99056   2.99443   3.01134
 Alpha virt. eigenvalues --    3.01675   3.03850   3.05478   3.06786   3.07472
 Alpha virt. eigenvalues --    3.09259   3.11942   3.14311   3.14934   3.17074
 Alpha virt. eigenvalues --    3.20936   3.25738   3.41739   3.93546   3.96387
 Alpha virt. eigenvalues --    3.97506   4.01691   4.02607   4.07014   4.07470
 Alpha virt. eigenvalues --    4.08339   4.09830   4.11339   4.12855   4.15012
 Alpha virt. eigenvalues --    4.16940   4.18776   4.21820   4.23933   4.25601
 Alpha virt. eigenvalues --    4.29104   4.31600   4.32836   4.33372   4.35125
 Alpha virt. eigenvalues --    4.36221   4.39136   4.43572   4.44732   4.45556
 Alpha virt. eigenvalues --    4.46269   4.48274   4.50793   4.54069   4.58027
 Alpha virt. eigenvalues --    4.62481   4.65824   4.70772   4.71122   4.73312
 Alpha virt. eigenvalues --    4.74546   4.81760   4.87599   4.91174   4.98109
          Condensed to atoms (all electrons):
 Mulliken charges:
               1
     1  O   -0.538257
     2  O   -0.531900
     3  O   -0.537829
     4  O   -0.659374
     5  O   -0.629526
     6  O   -0.463232
     7  O   -0.448695
     8  O   -0.659019
     9  O   -0.456701
    10  O   -0.487470
    11  O   -0.472128
    12  C   -0.181180
    13  C    0.249104
    14  C   -0.040692
    15  C    0.144548
    16  C    0.103024
    17  C    0.310545
    18  C    0.101238
    19  C   -0.327436
    20  C    0.005703
    21  C   -0.056139
    22  C    0.427346
    23  C   -0.375152
    24  C    0.103325
    25  C   -0.464463
    26  C   -0.040246
    27  C    0.097219
    28  C    0.032895
    29  C   -0.457578
    30  C   -0.501868
    31  C   -0.509295
    32  C    0.628673
    33  C    0.605044
    34  C   -0.553383
    35  C    0.630279
    36  C    0.065053
    37  C   -0.531272
    38  C   -0.149435
    39  C   -0.156624
    40  C   -0.137089
    41  C   -0.136352
    42  C   -0.114868
    43  H    0.146604
    44  H    0.139292
    45  H    0.187149
    46  H    0.179796
    47  H    0.151409
    48  H    0.176379
    49  H    0.187330
    50  H    0.186722
    51  H    0.165096
    52  H    0.158973
    53  H    0.143679
    54  H    0.195952
    55  H    0.169813
    56  H    0.190936
    57  H    0.153458
    58  H    0.153328
    59  H    0.140363
    60  H    0.168035
    61  H    0.170672
    62  H    0.170380
    63  H    0.161262
    64  H    0.400501
    65  H    0.420543
    66  H    0.162090
    67  H    0.170893
    68  H    0.170945
    69  H    0.417259
    70  H    0.186033
    71  H    0.203689
    72  H    0.188369
    73  H    0.200026
    74  H    0.176931
    75  H    0.182471
    76  H    0.167749
    77  H    0.146212
    78  H    0.142856
    79  H    0.138502
    80  H    0.141506
 Sum of Mulliken charges =  -0.00000
 Mulliken charges with hydrogens summed into heavy atoms:
               1
     1  O   -0.538257
     2  O   -0.531900
     3  O   -0.537829
     4  O   -0.258873
     5  O   -0.208984
     6  O   -0.463232
     7  O   -0.448695
     8  O   -0.241759
     9  O   -0.456701
    10  O   -0.487470
    11  O   -0.472128
    12  C   -0.034575
    13  C    0.249104
    14  C   -0.040692
    15  C    0.283841
    16  C    0.290173
    17  C    0.310545
    18  C    0.281034
    19  C    0.000352
    20  C    0.005703
    21  C    0.317913
    22  C    0.427346
    23  C   -0.051083
    24  C    0.103325
    25  C    0.044982
    26  C    0.150690
    27  C    0.250677
    28  C    0.032895
    29  C    0.004148
    30  C    0.000446
    31  C   -0.005367
    32  C    0.628673
    33  C    0.605044
    34  C    0.024708
    35  C    0.630279
    36  C    0.065053
    37  C    0.028156
    38  C    0.018314
    39  C   -0.010412
    40  C    0.005767
    41  C    0.002149
    42  C    0.026637
 Electronic spatial extent (au):  <R**2>=          18919.9184
 Charge=              0.0000 electrons
 Dipole moment (field-independent basis, Debye):
    X=             -3.8830    Y=             -3.0871    Z=              4.1224  Tot=              6.4500
 Quadrupole moment (field-independent basis, Debye-Ang):
   XX=           -230.6514   YY=           -251.4270   ZZ=           -247.3495
   XY=             -8.0890   XZ=              3.4072   YZ=              6.9439
 Traceless Quadrupole moment (field-independent basis, Debye-Ang):
   XX=             12.4912   YY=             -8.2843   ZZ=             -4.2069
   XY=             -8.0890   XZ=              3.4072   YZ=              6.9439
 Octapole moment (field-independent basis, Debye-Ang**2):
  XXX=           -132.6958  YYY=             -7.0354  ZZZ=             10.0743  XYY=             -5.9767
  XXY=           -125.4229  XXZ=            -30.5758  XZZ=            -28.5057  YZZ=             21.4395
  YYZ=             39.4515  XYZ=             31.3769
 Hexadecapole moment (field-independent basis, Debye-Ang**3):
 XXXX=         -13606.9248 YYYY=          -5576.4730 ZZZZ=          -4307.7116 XXXY=           -118.1985
 XXXZ=             39.5983 YYYX=           -113.8868 YYYZ=             30.0015 ZZZX=            -84.6402
 ZZZY=             77.0414 XXYY=          -3479.8061 XXZZ=          -2996.8216 YYZZ=          -1559.3749
 XXYZ=             43.5386 YYXZ=             -1.8325 ZZXY=            -75.8650
 N-N= 5.914465809273D+03 E-N=-1.656621210089D+04  KE= 2.013180358270D+03
 Unable to Open any file for archive entry.
 1\1\GINC-AMR-200\FOpt\RB3LYP\6-31G(d)\C31H38O11\LIZHEN6\26-Mar-2023\0\
 \# B3LYP/6-31G* Geom=Chk Guess=Read Opt\\CLR\\0,1\O,-0.0910078998,3.65
 28547103,-1.2188883132\O,-1.0883701715,1.8177212273,1.368756868\O,-1.8
 748557937,-0.3611667131,-0.2842112358\O,-1.0846364155,-2.8557271814,0.
 1029771472\O,2.4563099061,3.070252518,-2.201835112\O,4.2925976225,-1.6
 245870348,-0.0153998335\O,3.3177037264,-0.4982462288,-2.1426974835\O,0
 .1497395176,0.2147259316,3.6242503008\O,-3.2728659752,2.0964918012,0.7
 544720249\O,-2.0890546568,-0.2620555416,-2.540463828\O,5.7359639266,0.
 1197988874,-0.153330003\C,0.40143026,0.7207351183,-0.1797396436\C,-0.4
 471665061,1.9991691596,0.0720188765\C,1.5639992857,0.8918959964,-1.260
 2251442\C,0.4193494387,3.2769054545,0.094467447\C,-0.437447242,-0.6002
 284334,-0.3748512093\C,-0.2151287206,-1.8298026637,0.5952729507\C,2.41
 24357558,2.2647802039,-1.0437334089\C,1.9176760732,3.0972870163,0.1455
 083193\C,1.2277793579,-2.4127981739,0.5157733163\C,-1.1946339602,2.708
 4557414,-1.0817430652\C,2.6988975267,-0.17837379,-1.1507592651\C,-0.56
 81398903,-1.562344778,2.0781056842\C,2.1535050074,-1.3261639617,1.0916
 413473\C,1.0629611208,0.8448620185,-2.7195300558\C,3.2190291731,-0.702
 221356,0.2297343805\C,0.5555002791,-1.0165323301,3.0051749576\C,1.9019
 09975,-0.8065611967,2.3137128913\C,1.355363941,-3.681934183,1.40527264
 79\C,1.5596077109,-2.898499569,-0.9140820114\C,2.8429556383,0.10437135
 44,3.0738456268\C,-2.4293628338,1.9624052056,1.6072142719\C,-2.5975259
 669,-0.3690904598,-1.4424725715\C,-2.6971430158,1.9539913367,3.0948542
 244\C,5.5058729566,-1.0629710474,-0.2758398758\C,-4.0585712496,-0.5444
 432752,-1.2187244562\C,6.4925467368,-2.1103815218,-0.7224870001\C,-4.8
 88252356,-0.527178029,-2.3497123094\C,-4.6180123587,-0.7623781805,0.04
 84209636\C,-6.2595551646,-0.7229904679,-2.2146624544\C,-5.9906973765,-
 0.9627150805,0.1788463438\C,-6.8124407239,-0.9425896664,-0.950216589\H
 ,0.9141964724,0.6251605498,0.7729251378\H,0.0579554053,3.9785046884,0.
 8589861891\H,-0.2703509354,-0.9754753267,-1.3797492934\H,3.4577040812,
 1.9946814365,-0.8672587457\H,2.1763623422,2.6321842504,1.1065132099\H,
 2.4294337171,4.0652431525,0.1130455527\H,-1.374117707,2.135964152,-1.9
 917740329\H,-2.1030653441,3.2212035362,-0.7715812982\H,-0.9169041028,-
 2.5208679539,2.4714758598\H,-1.4203625315,-0.8805876175,2.1419308138\H
 ,0.3687964598,1.6564886448,-2.9325334217\H,1.9097208505,0.9405608517,-
 3.3952274982\H,0.5511333382,-0.0923178682,-2.9446529675\H,3.6404676145
 ,0.1744479163,0.7272196351\H,0.6801473639,-1.6965048697,3.8569834386\H
 ,2.3595019066,-4.1007630463,1.2803138881\H,1.2222119777,-3.4790839401,
 2.4707134177\H,0.6232245355,-4.4346574961,1.1009057485\H,2.6057548774,
 -3.2055716416,-0.9806998229\H,0.9255959559,-3.7585363661,-1.1420022817
 \H,1.3870663787,-2.1636134326,-1.6999941458\H,-1.9924155337,-2.5235644
 599,0.190055676\H,1.5630236043,3.4494038171,-2.3015398051\H,2.56712923
 17,1.1638554306,3.0036024467\H,2.7963364364,-0.1402333133,4.1409990274
 \H,3.8804312757,-0.0040402481,2.7496981878\H,-0.0627363689,0.842233070
 4,2.9098692019\H,-3.7693079218,1.8420368416,3.2609707182\H,-2.14075791
 25,1.1618032669,3.6030842167\H,-2.3698006752,2.9088293755,3.5235269609
 \H,6.2495517087,-2.4029914604,-1.7500821218\H,6.423846431,-3.004502337
 3,-0.0964815348\H,7.5019472841,-1.6984088992,-0.6930625071\H,-4.437613
 0985,-0.3632095473,-3.322696293\H,-3.9827290034,-0.7634618299,0.926079
 9544\H,-6.8974507143,-0.7072555181,-3.0937717731\H,-6.4203506358,-1.13
 10223051,1.1623110606\H,-7.8828434223,-1.0976543212,-0.8448185198\\Ver
 sion=ES64L-G16RevC.01\State=1-A\HF=-2031.5581675\RMSD=4.819e-09\RMSF=3
 .602e-06\Dipole=-1.6565938,-0.5454199,1.8432773\Quadrupole=8.0717223,-
 2.0826888,-5.9890335,-5.9623657,5.2782891,4.4866917\PG=C01 [X(C31H38O1
 1)]\\@
 The archive entry for this job was punched.


 IN SO FAR AS QUANTUM MECHANICS IS CORRECT, CHEMICAL 
 QUESTIONS ARE PROBLEMS IN APPLIED MATHEMATICS.

                    -- EYRING, WALTER, & KIMBALL, 1944
 Job cpu time:       0 days 12 hours 31 minutes  8.3 seconds.
 Elapsed time:       0 days  1 hours 34 minutes 19.7 seconds.
 File lengths (MBytes):  RWF=    576 Int=      0 D2E=      0 Chk=     64 Scr=     32
 Normal termination of Gaussian 16 at Sun Mar 26 18:43:49 2023.
