 Entering Gaussian System, Link 0=g16
 Initial command:
 /opt/software/Gaussian/g16-AVX2-C.01/g16/l1.exe "/mnt/gs21/scratch/lizhen6/Gau-6730.inp" -scrdir="/mnt/gs21/scratch/lizhen6/"
 Entering Link 1 = /opt/software/Gaussian/g16-AVX2-C.01/g16/l1.exe PID=      6731.
  
 Copyright (c) 1988-2019, Gaussian, Inc.  All Rights Reserved.
  
 This is part of the Gaussian(R) 16 program.  It is based on
 the Gaussian(R) 09 system (copyright 2009, Gaussian, Inc.),
 the Gaussian(R) 03 system (copyright 2003, Gaussian, Inc.),
 the Gaussian(R) 98 system (copyright 1998, Gaussian, Inc.),
 the Gaussian(R) 94 system (copyright 1995, Gaussian, Inc.),
 the Gaussian 92(TM) system (copyright 1992, Gaussian, Inc.),
 the Gaussian 90(TM) system (copyright 1990, Gaussian, Inc.),
 the Gaussian 88(TM) system (copyright 1988, Gaussian, Inc.),
 the Gaussian 86(TM) system (copyright 1986, Carnegie Mellon
 University), and the Gaussian 82(TM) system (copyright 1983,
 Carnegie Mellon University). Gaussian is a federally registered
 trademark of Gaussian, Inc.
  
 This software contains proprietary and confidential information,
 including trade secrets, belonging to Gaussian, Inc.
  
 This software is provided under written license and may be
 used, copied, transmitted, or stored only in accord with that
 written license.
  
 The following legend is applicable only to US Government
 contracts under FAR:
  
                    RESTRICTED RIGHTS LEGEND
  
 Use, reproduction and disclosure by the US Government is
 subject to restrictions as set forth in subparagraphs (a)
 and (c) of the Commercial Computer Software - Restricted
 Rights clause in FAR 52.227-19.
  
 Gaussian, Inc.
 340 Quinnipiac St., Bldg. 40, Wallingford CT 06492
  
  
 ---------------------------------------------------------------
 Warning -- This program may not be used in any manner that
 competes with the business of Gaussian, Inc. or will provide
 assistance to any competitor of Gaussian, Inc.  The licensee
 of this program is prohibited from giving any competitor of
 Gaussian, Inc. access to this program.  By using this program,
 the user acknowledges that Gaussian, Inc. is engaged in the
 business of creating and licensing software in the field of
 computational chemistry and represents and warrants to the
 licensee that it is not a competitor of Gaussian, Inc. and that
 it will not use this program in any manner prohibited above.
 ---------------------------------------------------------------
  

 Cite this work as:
 Gaussian 16, Revision C.01,
 M. J. Frisch, G. W. Trucks, H. B. Schlegel, G. E. Scuseria, 
 M. A. Robb, J. R. Cheeseman, G. Scalmani, V. Barone, 
 G. A. Petersson, H. Nakatsuji, X. Li, M. Caricato, A. V. Marenich, 
 J. Bloino, B. G. Janesko, R. Gomperts, B. Mennucci, H. P. Hratchian, 
 J. V. Ortiz, A. F. Izmaylov, J. L. Sonnenberg, D. Williams-Young, 
 F. Ding, F. Lipparini, F. Egidi, J. Goings, B. Peng, A. Petrone, 
 T. Henderson, D. Ranasinghe, V. G. Zakrzewski, J. Gao, N. Rega, 
 G. Zheng, W. Liang, M. Hada, M. Ehara, K. Toyota, R. Fukuda, 
 J. Hasegawa, M. Ishida, T. Nakajima, Y. Honda, O. Kitao, H. Nakai, 
 T. Vreven, K. Throssell, J. A. Montgomery, Jr., J. E. Peralta, 
 F. Ogliaro, M. J. Bearpark, J. J. Heyd, E. N. Brothers, K. N. Kudin, 
 V. N. Staroverov, T. A. Keith, R. Kobayashi, J. Normand, 
 K. Raghavachari, A. P. Rendell, J. C. Burant, S. S. Iyengar, 
 J. Tomasi, M. Cossi, J. M. Millam, M. Klene, C. Adamo, R. Cammi, 
 J. W. Ochterski, R. L. Martin, K. Morokuma, O. Farkas, 
 J. B. Foresman, and D. J. Fox, Gaussian, Inc., Wallingford CT, 2019.
 
 ******************************************
 Gaussian 16:  ES64L-G16RevC.01  3-Jul-2019
                 5-Apr-2023 
 ******************************************
 %Chk=6WZ3_small_opt3.chk
 %Mem=32GB
 %NProcShared=8
 Will use up to    8 processors via shared memory.
 -----------------------------------------
 # B3LYP/3-21G* Geom=Chk Guess=CopyChk Opt
 -----------------------------------------
 1/18=20,19=15,26=3,29=2,38=1/1,3;
 2/9=110,12=2,40=1/2;
 3/5=5,7=1,11=2,14=-4,25=1,30=1,71=1,74=-5/1,2,3;
 4/5=18/1;
 5/5=2/2;
 6/7=2,8=2,9=2,10=2,28=1/1;
 7//1,2,3,16;
 1/18=20,19=15,26=3/3(2);
 2/9=110/2;
 99//99;
 2/9=110/2;
 3/5=5,7=1,11=2,14=-2,25=1,30=1,71=1,74=-5/1,2,3;
 4/5=5,16=3,69=1/1;
 5/5=2,38=5/2;
 7//1,2,3,16;
 1/18=20,19=15,26=3/3(-5);
 2/9=110/2;
 6/7=2,8=2,9=2,10=2,19=2,28=1/1;
 99/9=1/99;
 ---
 CLR
 ---
 Structure from the checkpoint file:  "6WZ3_small_opt3.chk"
 Charge =  0 Multiplicity = 1
 Redundant internal coordinates found in file.  (old form).
 O,0,-0.2389340002,3.4965073321,-1.3245387036
 O,0,-1.1290883668,1.5673977042,1.2971450311
 O,0,-1.7821253573,-0.3102216999,-0.5123970328
 O,0,-1.0684403799,-2.7607707074,-0.0671127653
 O,0,2.2494606013,3.1838839926,-2.2468363054
 O,0,4.2590785935,-1.5021990422,0.0982842869
 O,0,3.3819014216,-0.4272931863,-2.0375640918
 O,0,0.1053656439,-0.4814024433,3.9720773378
 O,0,-2.2977732708,3.4761221234,1.5552506458
 O,0,-2.0074426588,-1.1469897034,-2.5912957844
 O,0,5.7273345938,0.1749817526,-0.1613718038
 C,0,0.4432873456,0.7224405547,-0.2103562586
 C,0,-0.4836868957,1.9149878513,0.0538687133
 C,0,1.5850683374,0.9532405667,-1.26160663
 C,0,0.2845005206,3.2565394795,0.0458637386
 C,0,-0.3555344325,-0.5969880587,-0.4737056115
 C,0,-0.1894687905,-1.7773061249,0.5220820432
 C,0,2.3248731864,2.3655680442,-1.0779456715
 C,0,1.7888730312,3.1576957713,0.1128516944
 C,0,1.258904133,-2.3163569587,0.5499807251
 C,0,-1.2989627946,2.4694365458,-1.1327936545
 C,0,2.728242302,-0.071430748,-1.0855710934
 C,0,-0.6529445953,-1.4484933982,1.9416040044
 C,0,2.1102209258,-1.18885184,1.138877057
 C,0,1.1251780625,0.8569933556,-2.7311000451
 C,0,3.1997104318,-0.5517566644,0.3185937917
 C,0,0.4116463318,-0.8767984662,2.8615888131
 C,0,1.7844187844,-0.6707658097,2.3193320884
 C,0,1.3764072258,-3.542759519,1.4954323804
 C,0,1.6909540315,-2.8387172756,-0.8378148511
 C,0,2.600512183,0.3236408209,3.1184215321
 C,0,-1.9847571479,2.3888709604,1.9658734208
 C,0,-2.5123781233,-0.7926735494,-1.5568524159
 C,0,-2.4588931158,1.7356024909,3.2322503771
 C,0,5.4774120498,-0.9941248015,-0.2732200381
 C,0,-3.9634356199,-0.7548532622,-1.2929191725
 C,0,6.3610379002,-2.0841594023,-0.7872494998
 C,0,-4.8122135006,-1.1806221598,-2.3014562601
 C,0,-4.4752204196,-0.3081595327,-0.0870516341
 C,0,-6.1785865093,-1.1623925413,-2.1031641344
 C,0,-5.8427450765,-0.2878499765,0.1100540936
 C,0,-6.6929435679,-0.7153086539,-0.8968108445
 H,0,0.9178680185,0.625164101,0.7384388489
 H,0,-0.1343082619,3.9757433227,0.723624917
 H,0,-0.1163209099,-0.9935303702,-1.4371786598
 H,0,3.3803245894,2.1824278992,-0.9438861021
 H,0,2.06113183,2.6980253549,1.0555427828
 H,0,2.2397270354,4.1410420468,0.0774426523
 H,0,-1.4092983481,1.8412066268,-1.9932352098
 H,0,-2.2199155516,2.9351250421,-0.8381846992
 H,0,-1.0286594191,-2.3481121581,2.4174511855
 H,0,-1.461635109,-0.7388678696,1.899782236
 H,0,0.4216620722,1.6382924331,-2.9555398209
 H,0,1.9775907558,0.9846091744,-3.3741848057
 H,0,0.6653992704,-0.0942435875,-2.9533771659
 H,0,3.6023824079,0.3083501337,0.8278533991
 H,0,2.401699237,-3.8909202105,1.4840298895
 H,0,1.1187438389,-3.3093626943,2.5181713641
 H,0,0.7443945238,-4.3486092037,1.140728997
 H,0,2.731639075,-3.1210591283,-0.8127548048
 H,0,1.0802313515,-3.6986395346,-1.0698815634
 H,0,1.5607529781,-2.1351533799,-1.6404629542
 H,0,-1.3095337826,-3.453511096,0.5588862846
 H,0,1.3468998751,3.5380558792,-2.3120547027
 H,0,2.3291570948,1.3484342913,2.8823726851
 H,0,2.3823918751,0.1711691169,4.1657964001
 H,0,3.6620577172,0.1965148278,2.9633231682
 H,0,-2.868474216,2.4870957686,3.8890248283
 H,0,-3.2404289994,1.0228958858,2.9888310866
 H,0,-1.6521314574,1.1962544374,3.7057455619
 H,0,5.9529299009,-2.4282433991,-1.7303511863
 H,0,6.3611215254,-2.9148157721,-0.0949651465
 H,0,7.3604303659,-1.7075264412,-0.9340804309
 H,0,-4.3884021742,-1.5197982823,-3.2242005319
 H,0,-3.8018883933,0.0200880263,0.6742580086
 H,0,-6.8381022307,-1.4914240722,-2.8805304555
 H,0,-6.2457264737,0.0600742587,1.039908673
 H,0,-7.7535230453,-0.6984152777,-0.7420422013
 Recover connectivity data from disk.

 GradGradGradGradGradGradGradGradGradGradGradGradGradGradGradGradGradGrad
 Berny optimization.
 Initialization pass.
                           ----------------------------
                           !    Initial Parameters    !
                           ! (Angstroms and Degrees)  !
 --------------------------                            --------------------------
 ! Name  Definition              Value          Derivative Info.                !
 --------------------------------------------------------------------------------
 ! R1    R(1,15)                 1.4865         estimate D2E/DX2                !
 ! R2    R(1,21)                 1.4884         estimate D2E/DX2                !
 ! R3    R(1,53)                 2.5592         estimate D2E/DX2                !
 ! R4    R(2,13)                 1.4433         estimate D2E/DX2                !
 ! R5    R(2,32)                 1.3617         estimate D2E/DX2                !
 ! R6    R(3,16)                 1.4556         estimate D2E/DX2                !
 ! R7    R(3,33)                 1.3627         estimate D2E/DX2                !
 ! R8    R(4,17)                 1.4446         estimate D2E/DX2                !
 ! R9    R(4,63)                 0.9643         estimate D2E/DX2                !
 ! R10   R(5,18)                 1.4289         estimate D2E/DX2                !
 ! R11   R(5,64)                 0.9718         estimate D2E/DX2                !
 ! R12   R(6,26)                 1.4402         estimate D2E/DX2                !
 ! R13   R(6,35)                 1.3713         estimate D2E/DX2                !
 ! R14   R(7,22)                 1.2084         estimate D2E/DX2                !
 ! R15   R(8,27)                 1.2179         estimate D2E/DX2                !
 ! R16   R(9,32)                 1.2036         estimate D2E/DX2                !
 ! R17   R(10,33)                1.2044         estimate D2E/DX2                !
 ! R18   R(11,35)                1.2007         estimate D2E/DX2                !
 ! R19   R(12,13)                1.5334         estimate D2E/DX2                !
 ! R20   R(12,14)                1.5691         estimate D2E/DX2                !
 ! R21   R(12,16)                1.5647         estimate D2E/DX2                !
 ! R22   R(12,43)                1.0653         estimate D2E/DX2                !
 ! R23   R(13,15)                1.5459         estimate D2E/DX2                !
 ! R24   R(13,21)                1.5428         estimate D2E/DX2                !
 ! R25   R(14,18)                1.6049         estimate D2E/DX2                !
 ! R26   R(14,22)                1.5452         estimate D2E/DX2                !
 ! R27   R(14,25)                1.5428         estimate D2E/DX2                !
 ! R28   R(15,19)                1.5091         estimate D2E/DX2                !
 ! R29   R(15,44)                1.0733         estimate D2E/DX2                !
 ! R30   R(16,17)                1.5532         estimate D2E/DX2                !
 ! R31   R(16,45)                1.069          estimate D2E/DX2                !
 ! R32   R(17,20)                1.5457         estimate D2E/DX2                !
 ! R33   R(17,23)                1.529          estimate D2E/DX2                !
 ! R34   R(18,19)                1.5273         estimate D2E/DX2                !
 ! R35   R(18,46)                1.0796         estimate D2E/DX2                !
 ! R36   R(19,47)                1.0836         estimate D2E/DX2                !
 ! R37   R(19,48)                1.0824         estimate D2E/DX2                !
 ! R38   R(20,24)                1.5306         estimate D2E/DX2                !
 ! R39   R(20,29)                1.553          estimate D2E/DX2                !
 ! R40   R(20,30)                1.5445         estimate D2E/DX2                !
 ! R41   R(21,49)                1.0711         estimate D2E/DX2                !
 ! R42   R(21,50)                1.0732         estimate D2E/DX2                !
 ! R43   R(22,26)                1.5571         estimate D2E/DX2                !
 ! R44   R(23,27)                1.5187         estimate D2E/DX2                !
 ! R45   R(23,51)                1.0849         estimate D2E/DX2                !
 ! R46   R(23,52)                1.0767         estimate D2E/DX2                !
 ! R47   R(24,26)                1.5052         estimate D2E/DX2                !
 ! R48   R(24,28)                1.3297         estimate D2E/DX2                !
 ! R49   R(25,53)                1.0751         estimate D2E/DX2                !
 ! R50   R(25,54)                1.0754         estimate D2E/DX2                !
 ! R51   R(25,55)                1.0797         estimate D2E/DX2                !
 ! R52   R(26,56)                1.0776         estimate D2E/DX2                !
 ! R53   R(27,28)                1.4903         estimate D2E/DX2                !
 ! R54   R(28,31)                1.5144         estimate D2E/DX2                !
 ! R55   R(29,57)                1.0829         estimate D2E/DX2                !
 ! R56   R(29,58)                1.0802         estimate D2E/DX2                !
 ! R57   R(29,59)                1.0838         estimate D2E/DX2                !
 ! R58   R(30,60)                1.0786         estimate D2E/DX2                !
 ! R59   R(30,61)                1.08           estimate D2E/DX2                !
 ! R60   R(30,62)                1.0753         estimate D2E/DX2                !
 ! R61   R(31,65)                1.0861         estimate D2E/DX2                !
 ! R62   R(31,66)                1.0807         estimate D2E/DX2                !
 ! R63   R(31,67)                1.0803         estimate D2E/DX2                !
 ! R64   R(32,34)                1.5018         estimate D2E/DX2                !
 ! R65   R(33,36)                1.4754         estimate D2E/DX2                !
 ! R66   R(34,68)                1.0788         estimate D2E/DX2                !
 ! R67   R(34,69)                1.0854         estimate D2E/DX2                !
 ! R68   R(34,70)                1.0798         estimate D2E/DX2                !
 ! R69   R(35,37)                1.4944         estimate D2E/DX2                !
 ! R70   R(36,38)                1.3852         estimate D2E/DX2                !
 ! R71   R(36,39)                1.384          estimate D2E/DX2                !
 ! R72   R(37,71)                1.0837         estimate D2E/DX2                !
 ! R73   R(37,72)                1.0813         estimate D2E/DX2                !
 ! R74   R(37,73)                1.0781         estimate D2E/DX2                !
 ! R75   R(38,40)                1.3808         estimate D2E/DX2                !
 ! R76   R(38,74)                1.0706         estimate D2E/DX2                !
 ! R77   R(39,41)                1.3818         estimate D2E/DX2                !
 ! R78   R(39,75)                1.068          estimate D2E/DX2                !
 ! R79   R(40,42)                1.3855         estimate D2E/DX2                !
 ! R80   R(40,76)                1.0712         estimate D2E/DX2                !
 ! R81   R(41,42)                1.3854         estimate D2E/DX2                !
 ! R82   R(41,77)                1.0715         estimate D2E/DX2                !
 ! R83   R(42,78)                1.0719         estimate D2E/DX2                !
 ! A1    A(15,1,21)             91.1816         estimate D2E/DX2                !
 ! A2    A(15,1,53)            112.2988         estimate D2E/DX2                !
 ! A3    A(21,1,53)             76.4023         estimate D2E/DX2                !
 ! A4    A(13,2,32)            123.9698         estimate D2E/DX2                !
 ! A5    A(16,3,33)            118.4129         estimate D2E/DX2                !
 ! A6    A(17,4,63)            112.1115         estimate D2E/DX2                !
 ! A7    A(18,5,64)            108.2194         estimate D2E/DX2                !
 ! A8    A(26,6,35)            116.7726         estimate D2E/DX2                !
 ! A9    A(13,12,14)           116.1643         estimate D2E/DX2                !
 ! A10   A(13,12,16)           112.0973         estimate D2E/DX2                !
 ! A11   A(13,12,43)           100.7693         estimate D2E/DX2                !
 ! A12   A(14,12,16)           112.5049         estimate D2E/DX2                !
 ! A13   A(14,12,43)           106.6162         estimate D2E/DX2                !
 ! A14   A(16,12,43)           107.4771         estimate D2E/DX2                !
 ! A15   A(2,13,12)            103.3833         estimate D2E/DX2                !
 ! A16   A(2,13,15)            115.8269         estimate D2E/DX2                !
 ! A17   A(2,13,21)            120.8513         estimate D2E/DX2                !
 ! A18   A(12,13,15)           111.9386         estimate D2E/DX2                !
 ! A19   A(12,13,21)           117.8017         estimate D2E/DX2                !
 ! A20   A(15,13,21)            86.9468         estimate D2E/DX2                !
 ! A21   A(12,14,18)           112.8426         estimate D2E/DX2                !
 ! A22   A(12,14,22)           111.3748         estimate D2E/DX2                !
 ! A23   A(12,14,25)           114.3342         estimate D2E/DX2                !
 ! A24   A(18,14,22)           103.2667         estimate D2E/DX2                !
 ! A25   A(18,14,25)           107.5364         estimate D2E/DX2                !
 ! A26   A(22,14,25)           106.7184         estimate D2E/DX2                !
 ! A27   A(1,15,13)             88.2745         estimate D2E/DX2                !
 ! A28   A(1,15,19)            113.7363         estimate D2E/DX2                !
 ! A29   A(1,15,44)            109.6688         estimate D2E/DX2                !
 ! A30   A(13,15,19)           115.9941         estimate D2E/DX2                !
 ! A31   A(13,15,44)           112.6016         estimate D2E/DX2                !
 ! A32   A(19,15,44)           113.8808         estimate D2E/DX2                !
 ! A33   A(3,16,12)            109.7967         estimate D2E/DX2                !
 ! A34   A(3,16,17)            105.7559         estimate D2E/DX2                !
 ! A35   A(3,16,45)            105.5709         estimate D2E/DX2                !
 ! A36   A(12,16,17)           118.5757         estimate D2E/DX2                !
 ! A37   A(12,16,45)           110.5024         estimate D2E/DX2                !
 ! A38   A(17,16,45)           105.7846         estimate D2E/DX2                !
 ! A39   A(4,17,16)            100.9999         estimate D2E/DX2                !
 ! A40   A(4,17,20)            109.8818         estimate D2E/DX2                !
 ! A41   A(4,17,23)            109.914          estimate D2E/DX2                !
 ! A42   A(16,17,20)           112.1349         estimate D2E/DX2                !
 ! A43   A(16,17,23)           113.5395         estimate D2E/DX2                !
 ! A44   A(20,17,23)           110.0153         estimate D2E/DX2                !
 ! A45   A(5,18,14)            112.7084         estimate D2E/DX2                !
 ! A46   A(5,18,19)            108.7996         estimate D2E/DX2                !
 ! A47   A(5,18,46)            104.4975         estimate D2E/DX2                !
 ! A48   A(14,18,19)           112.5726         estimate D2E/DX2                !
 ! A49   A(14,18,46)           108.3964         estimate D2E/DX2                !
 ! A50   A(19,18,46)           109.5275         estimate D2E/DX2                !
 ! A51   A(15,19,18)           110.4383         estimate D2E/DX2                !
 ! A52   A(15,19,47)           108.4744         estimate D2E/DX2                !
 ! A53   A(15,19,48)           110.7496         estimate D2E/DX2                !
 ! A54   A(18,19,47)           111.7221         estimate D2E/DX2                !
 ! A55   A(18,19,48)           107.4277         estimate D2E/DX2                !
 ! A56   A(47,19,48)           108.012          estimate D2E/DX2                !
 ! A57   A(17,20,24)           105.7369         estimate D2E/DX2                !
 ! A58   A(17,20,29)           110.9342         estimate D2E/DX2                !
 ! A59   A(17,20,30)           111.3369         estimate D2E/DX2                !
 ! A60   A(24,20,29)           107.7829         estimate D2E/DX2                !
 ! A61   A(24,20,30)           116.0562         estimate D2E/DX2                !
 ! A62   A(29,20,30)           104.9976         estimate D2E/DX2                !
 ! A63   A(1,21,13)             88.3225         estimate D2E/DX2                !
 ! A64   A(1,21,49)            112.0008         estimate D2E/DX2                !
 ! A65   A(1,21,50)            110.3093         estimate D2E/DX2                !
 ! A66   A(13,21,49)           117.4868         estimate D2E/DX2                !
 ! A67   A(13,21,50)           113.4694         estimate D2E/DX2                !
 ! A68   A(49,21,50)           112.7452         estimate D2E/DX2                !
 ! A69   A(7,22,14)            120.379          estimate D2E/DX2                !
 ! A70   A(7,22,26)            117.1165         estimate D2E/DX2                !
 ! A71   A(14,22,26)           122.0915         estimate D2E/DX2                !
 ! A72   A(17,23,27)           115.521          estimate D2E/DX2                !
 ! A73   A(17,23,51)           109.5033         estimate D2E/DX2                !
 ! A74   A(17,23,52)           109.4712         estimate D2E/DX2                !
 ! A75   A(27,23,51)           106.8112         estimate D2E/DX2                !
 ! A76   A(27,23,52)           107.573          estimate D2E/DX2                !
 ! A77   A(51,23,52)           107.6652         estimate D2E/DX2                !
 ! A78   A(20,24,26)           120.3104         estimate D2E/DX2                !
 ! A79   A(20,24,28)           119.492          estimate D2E/DX2                !
 ! A80   A(26,24,28)           119.751          estimate D2E/DX2                !
 ! A81   A(14,25,53)           110.4009         estimate D2E/DX2                !
 ! A82   A(14,25,54)           109.0207         estimate D2E/DX2                !
 ! A83   A(14,25,55)           112.2103         estimate D2E/DX2                !
 ! A84   A(53,25,54)           107.9163         estimate D2E/DX2                !
 ! A85   A(53,25,55)           108.5812         estimate D2E/DX2                !
 ! A86   A(54,25,55)           108.6024         estimate D2E/DX2                !
 ! A87   A(6,26,22)            106.7588         estimate D2E/DX2                !
 ! A88   A(6,26,24)            109.6607         estimate D2E/DX2                !
 ! A89   A(6,26,56)            108.915          estimate D2E/DX2                !
 ! A90   A(22,26,24)           113.7549         estimate D2E/DX2                !
 ! A91   A(22,26,56)           107.0428         estimate D2E/DX2                !
 ! A92   A(24,26,56)           110.533          estimate D2E/DX2                !
 ! A93   A(8,27,23)            119.8843         estimate D2E/DX2                !
 ! A94   A(8,27,28)            121.2334         estimate D2E/DX2                !
 ! A95   A(23,27,28)           118.5107         estimate D2E/DX2                !
 ! A96   A(24,28,27)           119.6604         estimate D2E/DX2                !
 ! A97   A(24,28,31)           126.317          estimate D2E/DX2                !
 ! A98   A(27,28,31)           113.2771         estimate D2E/DX2                !
 ! A99   A(20,29,57)           108.6109         estimate D2E/DX2                !
 ! A100  A(20,29,58)           112.8133         estimate D2E/DX2                !
 ! A101  A(20,29,59)           110.1091         estimate D2E/DX2                !
 ! A102  A(57,29,58)           107.7756         estimate D2E/DX2                !
 ! A103  A(57,29,59)           108.0371         estimate D2E/DX2                !
 ! A104  A(58,29,59)           109.3548         estimate D2E/DX2                !
 ! A105  A(20,30,60)           109.728          estimate D2E/DX2                !
 ! A106  A(20,30,61)           107.7094         estimate D2E/DX2                !
 ! A107  A(20,30,62)           114.5546         estimate D2E/DX2                !
 ! A108  A(60,30,61)           110.0103         estimate D2E/DX2                !
 ! A109  A(60,30,62)           107.7854         estimate D2E/DX2                !
 ! A110  A(61,30,62)           106.9851         estimate D2E/DX2                !
 ! A111  A(28,31,65)           111.7318         estimate D2E/DX2                !
 ! A112  A(28,31,66)           108.059          estimate D2E/DX2                !
 ! A113  A(28,31,67)           112.1171         estimate D2E/DX2                !
 ! A114  A(65,31,66)           107.0586         estimate D2E/DX2                !
 ! A115  A(65,31,67)           108.9861         estimate D2E/DX2                !
 ! A116  A(66,31,67)           108.7158         estimate D2E/DX2                !
 ! A117  A(2,32,9)             122.74           estimate D2E/DX2                !
 ! A118  A(2,32,34)            110.4933         estimate D2E/DX2                !
 ! A119  A(9,32,34)            126.7641         estimate D2E/DX2                !
 ! A120  A(3,33,10)            122.5337         estimate D2E/DX2                !
 ! A121  A(3,33,36)            112.3879         estimate D2E/DX2                !
 ! A122  A(10,33,36)           124.9969         estimate D2E/DX2                !
 ! A123  A(32,34,68)           109.282          estimate D2E/DX2                !
 ! A124  A(32,34,69)           108.8968         estimate D2E/DX2                !
 ! A125  A(32,34,70)           110.5587         estimate D2E/DX2                !
 ! A126  A(68,34,69)           108.6977         estimate D2E/DX2                !
 ! A127  A(68,34,70)           111.3855         estimate D2E/DX2                !
 ! A128  A(69,34,70)           107.9598         estimate D2E/DX2                !
 ! A129  A(6,35,11)            121.3609         estimate D2E/DX2                !
 ! A130  A(6,35,37)            110.3815         estimate D2E/DX2                !
 ! A131  A(11,35,37)           128.2555         estimate D2E/DX2                !
 ! A132  A(33,36,38)           117.6792         estimate D2E/DX2                !
 ! A133  A(33,36,39)           121.8586         estimate D2E/DX2                !
 ! A134  A(38,36,39)           120.4619         estimate D2E/DX2                !
 ! A135  A(35,37,71)           107.955          estimate D2E/DX2                !
 ! A136  A(35,37,72)           109.8865         estimate D2E/DX2                !
 ! A137  A(35,37,73)           109.8871         estimate D2E/DX2                !
 ! A138  A(71,37,72)           108.2574         estimate D2E/DX2                !
 ! A139  A(71,37,73)           109.9688         estimate D2E/DX2                !
 ! A140  A(72,37,73)           110.8244         estimate D2E/DX2                !
 ! A141  A(36,38,40)           119.8492         estimate D2E/DX2                !
 ! A142  A(36,38,74)           118.8389         estimate D2E/DX2                !
 ! A143  A(40,38,74)           121.3119         estimate D2E/DX2                !
 ! A144  A(36,39,41)           119.6683         estimate D2E/DX2                !
 ! A145  A(36,39,75)           119.1512         estimate D2E/DX2                !
 ! A146  A(41,39,75)           121.1798         estimate D2E/DX2                !
 ! A147  A(38,40,42)           119.7782         estimate D2E/DX2                !
 ! A148  A(38,40,76)           120.0637         estimate D2E/DX2                !
 ! A149  A(42,40,76)           120.158          estimate D2E/DX2                !
 ! A150  A(39,41,42)           119.943          estimate D2E/DX2                !
 ! A151  A(39,41,77)           120.0511         estimate D2E/DX2                !
 ! A152  A(42,41,77)           120.0058         estimate D2E/DX2                !
 ! A153  A(40,42,41)           120.2993         estimate D2E/DX2                !
 ! A154  A(40,42,78)           119.8736         estimate D2E/DX2                !
 ! A155  A(41,42,78)           119.827          estimate D2E/DX2                !
 ! A156  A(1,53,25)            124.3021         estimate D2E/DX2                !
 ! D1    D(21,1,15,13)          17.5604         estimate D2E/DX2                !
 ! D2    D(21,1,15,19)         135.3192         estimate D2E/DX2                !
 ! D3    D(21,1,15,44)         -95.8648         estimate D2E/DX2                !
 ! D4    D(53,1,15,13)         -58.2163         estimate D2E/DX2                !
 ! D5    D(53,1,15,19)          59.5425         estimate D2E/DX2                !
 ! D6    D(53,1,15,44)        -171.6414         estimate D2E/DX2                !
 ! D7    D(15,1,21,13)         -17.5968         estimate D2E/DX2                !
 ! D8    D(15,1,21,49)        -136.6863         estimate D2E/DX2                !
 ! D9    D(15,1,21,50)          96.8597         estimate D2E/DX2                !
 ! D10   D(53,1,21,13)          95.0763         estimate D2E/DX2                !
 ! D11   D(53,1,21,49)         -24.0132         estimate D2E/DX2                !
 ! D12   D(53,1,21,50)        -150.4672         estimate D2E/DX2                !
 ! D13   D(15,1,53,25)          -9.3871         estimate D2E/DX2                !
 ! D14   D(21,1,53,25)         -95.0131         estimate D2E/DX2                !
 ! D15   D(32,2,13,12)         175.5284         estimate D2E/DX2                !
 ! D16   D(32,2,13,15)          52.7211         estimate D2E/DX2                !
 ! D17   D(32,2,13,21)         -49.9986         estimate D2E/DX2                !
 ! D18   D(13,2,32,9)            1.5586         estimate D2E/DX2                !
 ! D19   D(13,2,32,34)        -178.9858         estimate D2E/DX2                !
 ! D20   D(33,3,16,12)         130.7293         estimate D2E/DX2                !
 ! D21   D(33,3,16,17)        -100.2376         estimate D2E/DX2                !
 ! D22   D(33,3,16,45)          11.6032         estimate D2E/DX2                !
 ! D23   D(16,3,33,10)         -18.8148         estimate D2E/DX2                !
 ! D24   D(16,3,33,36)         164.3169         estimate D2E/DX2                !
 ! D25   D(63,4,17,16)        -161.7286         estimate D2E/DX2                !
 ! D26   D(63,4,17,20)          79.6863         estimate D2E/DX2                !
 ! D27   D(63,4,17,23)         -41.5201         estimate D2E/DX2                !
 ! D28   D(64,5,18,14)          74.3898         estimate D2E/DX2                !
 ! D29   D(64,5,18,19)         -51.2028         estimate D2E/DX2                !
 ! D30   D(64,5,18,46)        -168.1219         estimate D2E/DX2                !
 ! D31   D(35,6,26,22)          75.1243         estimate D2E/DX2                !
 ! D32   D(35,6,26,24)        -161.2114         estimate D2E/DX2                !
 ! D33   D(35,6,26,56)         -40.137          estimate D2E/DX2                !
 ! D34   D(26,6,35,11)          14.4867         estimate D2E/DX2                !
 ! D35   D(26,6,35,37)        -166.0034         estimate D2E/DX2                !
 ! D36   D(14,12,13,2)        -163.1969         estimate D2E/DX2                !
 ! D37   D(14,12,13,15)        -37.8443         estimate D2E/DX2                !
 ! D38   D(14,12,13,21)         60.6357         estimate D2E/DX2                !
 ! D39   D(16,12,13,2)          65.5237         estimate D2E/DX2                !
 ! D40   D(16,12,13,15)       -169.1237         estimate D2E/DX2                !
 ! D41   D(16,12,13,21)        -70.6438         estimate D2E/DX2                !
 ! D42   D(43,12,13,2)         -48.5035         estimate D2E/DX2                !
 ! D43   D(43,12,13,15)         76.8491         estimate D2E/DX2                !
 ! D44   D(43,12,13,21)        175.3291         estimate D2E/DX2                !
 ! D45   D(13,12,14,18)         43.8369         estimate D2E/DX2                !
 ! D46   D(13,12,14,22)        159.4489         estimate D2E/DX2                !
 ! D47   D(13,12,14,25)        -79.4842         estimate D2E/DX2                !
 ! D48   D(16,12,14,18)        174.9252         estimate D2E/DX2                !
 ! D49   D(16,12,14,22)        -69.4628         estimate D2E/DX2                !
 ! D50   D(16,12,14,25)         51.6041         estimate D2E/DX2                !
 ! D51   D(43,12,14,18)        -67.5012         estimate D2E/DX2                !
 ! D52   D(43,12,14,22)         48.1108         estimate D2E/DX2                !
 ! D53   D(43,12,14,25)        169.1777         estimate D2E/DX2                !
 ! D54   D(13,12,16,3)           4.9747         estimate D2E/DX2                !
 ! D55   D(13,12,16,17)       -116.6723         estimate D2E/DX2                !
 ! D56   D(13,12,16,45)        121.0265         estimate D2E/DX2                !
 ! D57   D(14,12,16,3)        -128.1308         estimate D2E/DX2                !
 ! D58   D(14,12,16,17)        110.2221         estimate D2E/DX2                !
 ! D59   D(14,12,16,45)        -12.079          estimate D2E/DX2                !
 ! D60   D(43,12,16,3)         114.8067         estimate D2E/DX2                !
 ! D61   D(43,12,16,17)         -6.8404         estimate D2E/DX2                !
 ! D62   D(43,12,16,45)       -129.1415         estimate D2E/DX2                !
 ! D63   D(2,13,15,1)         -139.948          estimate D2E/DX2                !
 ! D64   D(2,13,15,19)         104.372          estimate D2E/DX2                !
 ! D65   D(2,13,15,44)         -29.3257         estimate D2E/DX2                !
 ! D66   D(12,13,15,1)         101.8767         estimate D2E/DX2                !
 ! D67   D(12,13,15,19)        -13.8033         estimate D2E/DX2                !
 ! D68   D(12,13,15,44)       -147.5009         estimate D2E/DX2                !
 ! D69   D(21,13,15,1)         -16.9431         estimate D2E/DX2                !
 ! D70   D(21,13,15,19)       -132.623          estimate D2E/DX2                !
 ! D71   D(21,13,15,44)         93.6793         estimate D2E/DX2                !
 ! D72   D(2,13,21,1)          135.3653         estimate D2E/DX2                !
 ! D73   D(2,13,21,49)        -110.6036         estimate D2E/DX2                !
 ! D74   D(2,13,21,50)          23.9061         estimate D2E/DX2                !
 ! D75   D(12,13,21,1)         -96.3363         estimate D2E/DX2                !
 ! D76   D(12,13,21,49)         17.6948         estimate D2E/DX2                !
 ! D77   D(12,13,21,50)        152.2046         estimate D2E/DX2                !
 ! D78   D(15,13,21,1)          16.92           estimate D2E/DX2                !
 ! D79   D(15,13,21,49)        130.9511         estimate D2E/DX2                !
 ! D80   D(15,13,21,50)        -94.5391         estimate D2E/DX2                !
 ! D81   D(12,14,18,5)        -121.4886         estimate D2E/DX2                !
 ! D82   D(12,14,18,19)          2.0351         estimate D2E/DX2                !
 ! D83   D(12,14,18,46)        123.3499         estimate D2E/DX2                !
 ! D84   D(22,14,18,5)         118.1371         estimate D2E/DX2                !
 ! D85   D(22,14,18,19)       -118.3392         estimate D2E/DX2                !
 ! D86   D(22,14,18,46)          2.9757         estimate D2E/DX2                !
 ! D87   D(25,14,18,5)           5.5265         estimate D2E/DX2                !
 ! D88   D(25,14,18,19)        129.0502         estimate D2E/DX2                !
 ! D89   D(25,14,18,46)       -109.6349         estimate D2E/DX2                !
 ! D90   D(12,14,22,7)         149.7266         estimate D2E/DX2                !
 ! D91   D(12,14,22,26)        -37.8636         estimate D2E/DX2                !
 ! D92   D(18,14,22,7)         -88.9018         estimate D2E/DX2                !
 ! D93   D(18,14,22,26)         83.5081         estimate D2E/DX2                !
 ! D94   D(25,14,22,7)          24.3053         estimate D2E/DX2                !
 ! D95   D(25,14,22,26)       -163.2849         estimate D2E/DX2                !
 ! D96   D(12,14,25,53)         64.0982         estimate D2E/DX2                !
 ! D97   D(12,14,25,54)       -177.5177         estimate D2E/DX2                !
 ! D98   D(12,14,25,55)        -57.1719         estimate D2E/DX2                !
 ! D99   D(18,14,25,53)        -62.0392         estimate D2E/DX2                !
 ! D100  D(18,14,25,54)         56.3449         estimate D2E/DX2                !
 ! D101  D(18,14,25,55)        176.6907         estimate D2E/DX2                !
 ! D102  D(22,14,25,53)       -172.2946         estimate D2E/DX2                !
 ! D103  D(22,14,25,54)        -53.9106         estimate D2E/DX2                !
 ! D104  D(22,14,25,55)         66.4353         estimate D2E/DX2                !
 ! D105  D(1,15,19,18)         -40.5228         estimate D2E/DX2                !
 ! D106  D(1,15,19,47)        -163.27           estimate D2E/DX2                !
 ! D107  D(1,15,19,48)          78.3571         estimate D2E/DX2                !
 ! D108  D(13,15,19,18)         59.7198         estimate D2E/DX2                !
 ! D109  D(13,15,19,47)        -63.0275         estimate D2E/DX2                !
 ! D110  D(13,15,19,48)        178.5997         estimate D2E/DX2                !
 ! D111  D(44,15,19,18)       -167.1634         estimate D2E/DX2                !
 ! D112  D(44,15,19,47)         70.0894         estimate D2E/DX2                !
 ! D113  D(44,15,19,48)        -48.2835         estimate D2E/DX2                !
 ! D114  D(3,16,17,4)           56.2526         estimate D2E/DX2                !
 ! D115  D(3,16,17,20)         173.1939         estimate D2E/DX2                !
 ! D116  D(3,16,17,23)         -61.3384         estimate D2E/DX2                !
 ! D117  D(12,16,17,4)         179.9215         estimate D2E/DX2                !
 ! D118  D(12,16,17,20)        -63.1372         estimate D2E/DX2                !
 ! D119  D(12,16,17,23)         62.3305         estimate D2E/DX2                !
 ! D120  D(45,16,17,4)         -55.438          estimate D2E/DX2                !
 ! D121  D(45,16,17,20)         61.5033         estimate D2E/DX2                !
 ! D122  D(45,16,17,23)       -173.029          estimate D2E/DX2                !
 ! D123  D(4,17,20,24)         177.9546         estimate D2E/DX2                !
 ! D124  D(4,17,20,29)         -65.4604         estimate D2E/DX2                !
 ! D125  D(4,17,20,30)          51.0838         estimate D2E/DX2                !
 ! D126  D(16,17,20,24)         66.4765         estimate D2E/DX2                !
 ! D127  D(16,17,20,29)       -176.9385         estimate D2E/DX2                !
 ! D128  D(16,17,20,30)        -60.3943         estimate D2E/DX2                !
 ! D129  D(23,17,20,24)        -60.8998         estimate D2E/DX2                !
 ! D130  D(23,17,20,29)         55.6852         estimate D2E/DX2                !
 ! D131  D(23,17,20,30)        172.2294         estimate D2E/DX2                !
 ! D132  D(4,17,23,27)         157.358          estimate D2E/DX2                !
 ! D133  D(4,17,23,51)          36.7545         estimate D2E/DX2                !
 ! D134  D(4,17,23,52)         -81.0642         estimate D2E/DX2                !
 ! D135  D(16,17,23,27)        -90.3591         estimate D2E/DX2                !
 ! D136  D(16,17,23,51)        149.0374         estimate D2E/DX2                !
 ! D137  D(16,17,23,52)         31.2186         estimate D2E/DX2                !
 ! D138  D(20,17,23,27)         36.2318         estimate D2E/DX2                !
 ! D139  D(20,17,23,51)        -84.3717         estimate D2E/DX2                !
 ! D140  D(20,17,23,52)        157.8095         estimate D2E/DX2                !
 ! D141  D(5,18,19,15)          74.3717         estimate D2E/DX2                !
 ! D142  D(5,18,19,47)        -164.7989         estimate D2E/DX2                !
 ! D143  D(5,18,19,48)         -46.5093         estimate D2E/DX2                !
 ! D144  D(14,18,19,15)        -51.2999         estimate D2E/DX2                !
 ! D145  D(14,18,19,47)         69.5295         estimate D2E/DX2                !
 ! D146  D(14,18,19,48)       -172.1809         estimate D2E/DX2                !
 ! D147  D(46,18,19,15)       -171.9677         estimate D2E/DX2                !
 ! D148  D(46,18,19,47)        -51.1383         estimate D2E/DX2                !
 ! D149  D(46,18,19,48)         67.1512         estimate D2E/DX2                !
 ! D150  D(17,20,24,26)       -117.517          estimate D2E/DX2                !
 ! D151  D(17,20,24,28)         54.7961         estimate D2E/DX2                !
 ! D152  D(29,20,24,26)        123.7836         estimate D2E/DX2                !
 ! D153  D(29,20,24,28)        -63.9032         estimate D2E/DX2                !
 ! D154  D(30,20,24,26)          6.4397         estimate D2E/DX2                !
 ! D155  D(30,20,24,28)        178.7528         estimate D2E/DX2                !
 ! D156  D(17,20,29,57)        179.8084         estimate D2E/DX2                !
 ! D157  D(17,20,29,58)        -60.7773         estimate D2E/DX2                !
 ! D158  D(17,20,29,59)         61.6949         estimate D2E/DX2                !
 ! D159  D(24,20,29,57)        -64.8727         estimate D2E/DX2                !
 ! D160  D(24,20,29,58)         54.5416         estimate D2E/DX2                !
 ! D161  D(24,20,29,59)        177.0138         estimate D2E/DX2                !
 ! D162  D(30,20,29,57)         59.4246         estimate D2E/DX2                !
 ! D163  D(30,20,29,58)        178.8389         estimate D2E/DX2                !
 ! D164  D(30,20,29,59)        -58.689          estimate D2E/DX2                !
 ! D165  D(17,20,30,60)        174.6718         estimate D2E/DX2                !
 ! D166  D(17,20,30,61)        -65.5846         estimate D2E/DX2                !
 ! D167  D(17,20,30,62)         53.2993         estimate D2E/DX2                !
 ! D168  D(24,20,30,60)         53.6665         estimate D2E/DX2                !
 ! D169  D(24,20,30,61)        173.4101         estimate D2E/DX2                !
 ! D170  D(24,20,30,62)        -67.7061         estimate D2E/DX2                !
 ! D171  D(29,20,30,60)        -65.2113         estimate D2E/DX2                !
 ! D172  D(29,20,30,61)         54.5323         estimate D2E/DX2                !
 ! D173  D(29,20,30,62)        173.4161         estimate D2E/DX2                !
 ! D174  D(7,22,26,6)           -7.8987         estimate D2E/DX2                !
 ! D175  D(7,22,26,24)        -128.9919         estimate D2E/DX2                !
 ! D176  D(7,22,26,56)         108.6146         estimate D2E/DX2                !
 ! D177  D(14,22,26,6)         179.4566         estimate D2E/DX2                !
 ! D178  D(14,22,26,24)         58.3634         estimate D2E/DX2                !
 ! D179  D(14,22,26,56)        -64.03           estimate D2E/DX2                !
 ! D180  D(17,23,27,8)         173.7984         estimate D2E/DX2                !
 ! D181  D(17,23,27,28)          0.7083         estimate D2E/DX2                !
 ! D182  D(51,23,27,8)         -64.1474         estimate D2E/DX2                !
 ! D183  D(51,23,27,28)        122.7624         estimate D2E/DX2                !
 ! D184  D(52,23,27,8)          51.2063         estimate D2E/DX2                !
 ! D185  D(52,23,27,28)       -121.8839         estimate D2E/DX2                !
 ! D186  D(20,24,26,6)         -67.9144         estimate D2E/DX2                !
 ! D187  D(20,24,26,22)         51.5432         estimate D2E/DX2                !
 ! D188  D(20,24,26,56)        171.9927         estimate D2E/DX2                !
 ! D189  D(28,24,26,6)         119.7923         estimate D2E/DX2                !
 ! D190  D(28,24,26,22)       -120.75           estimate D2E/DX2                !
 ! D191  D(28,24,26,56)         -0.3005         estimate D2E/DX2                !
 ! D192  D(20,24,28,27)        -18.3788         estimate D2E/DX2                !
 ! D193  D(20,24,28,31)        172.2078         estimate D2E/DX2                !
 ! D194  D(26,24,28,27)        153.9778         estimate D2E/DX2                !
 ! D195  D(26,24,28,31)        -15.4356         estimate D2E/DX2                !
 ! D196  D(14,25,53,1)           4.5386         estimate D2E/DX2                !
 ! D197  D(54,25,53,1)        -114.5186         estimate D2E/DX2                !
 ! D198  D(55,25,53,1)         127.9407         estimate D2E/DX2                !
 ! D199  D(8,27,28,24)         175.7493         estimate D2E/DX2                !
 ! D200  D(8,27,28,31)         -13.5244         estimate D2E/DX2                !
 ! D201  D(23,27,28,24)        -11.2577         estimate D2E/DX2                !
 ! D202  D(23,27,28,31)        159.4686         estimate D2E/DX2                !
 ! D203  D(24,28,31,65)         91.273          estimate D2E/DX2                !
 ! D204  D(24,28,31,66)       -151.203          estimate D2E/DX2                !
 ! D205  D(24,28,31,67)        -31.4132         estimate D2E/DX2                !
 ! D206  D(27,28,31,65)        -78.7184         estimate D2E/DX2                !
 ! D207  D(27,28,31,66)         38.8056         estimate D2E/DX2                !
 ! D208  D(27,28,31,67)        158.5954         estimate D2E/DX2                !
 ! D209  D(2,32,34,68)         162.2715         estimate D2E/DX2                !
 ! D210  D(2,32,34,69)         -79.126          estimate D2E/DX2                !
 ! D211  D(2,32,34,70)          39.3291         estimate D2E/DX2                !
 ! D212  D(9,32,34,68)         -18.3001         estimate D2E/DX2                !
 ! D213  D(9,32,34,69)         100.3024         estimate D2E/DX2                !
 ! D214  D(9,32,34,70)        -141.2425         estimate D2E/DX2                !
 ! D215  D(3,33,36,38)         177.9617         estimate D2E/DX2                !
 ! D216  D(3,33,36,39)          -1.8213         estimate D2E/DX2                !
 ! D217  D(10,33,36,38)          1.1849         estimate D2E/DX2                !
 ! D218  D(10,33,36,39)       -178.5981         estimate D2E/DX2                !
 ! D219  D(6,35,37,71)          68.7078         estimate D2E/DX2                !
 ! D220  D(6,35,37,72)         -49.1596         estimate D2E/DX2                !
 ! D221  D(6,35,37,73)        -171.3596         estimate D2E/DX2                !
 ! D222  D(11,35,37,71)       -111.8252         estimate D2E/DX2                !
 ! D223  D(11,35,37,72)        130.3074         estimate D2E/DX2                !
 ! D224  D(11,35,37,73)          8.1075         estimate D2E/DX2                !
 ! D225  D(33,36,38,40)       -179.9123         estimate D2E/DX2                !
 ! D226  D(33,36,38,74)          0.1385         estimate D2E/DX2                !
 ! D227  D(39,36,38,40)         -0.1262         estimate D2E/DX2                !
 ! D228  D(39,36,38,74)        179.9246         estimate D2E/DX2                !
 ! D229  D(33,36,39,41)        179.7879         estimate D2E/DX2                !
 ! D230  D(33,36,39,75)          0.0928         estimate D2E/DX2                !
 ! D231  D(38,36,39,41)          0.0108         estimate D2E/DX2                !
 ! D232  D(38,36,39,75)       -179.6843         estimate D2E/DX2                !
 ! D233  D(36,38,40,42)          0.139          estimate D2E/DX2                !
 ! D234  D(36,38,40,76)       -179.9638         estimate D2E/DX2                !
 ! D235  D(74,38,40,42)       -179.9131         estimate D2E/DX2                !
 ! D236  D(74,38,40,76)         -0.0159         estimate D2E/DX2                !
 ! D237  D(36,39,41,42)          0.0906         estimate D2E/DX2                !
 ! D238  D(36,39,41,77)       -179.7803         estimate D2E/DX2                !
 ! D239  D(75,39,41,42)        179.7794         estimate D2E/DX2                !
 ! D240  D(75,39,41,77)         -0.0915         estimate D2E/DX2                !
 ! D241  D(38,40,42,41)         -0.038          estimate D2E/DX2                !
 ! D242  D(38,40,42,78)        179.8616         estimate D2E/DX2                !
 ! D243  D(76,40,42,41)       -179.9351         estimate D2E/DX2                !
 ! D244  D(76,40,42,78)         -0.0355         estimate D2E/DX2                !
 ! D245  D(39,41,42,40)         -0.0774         estimate D2E/DX2                !
 ! D246  D(39,41,42,78)       -179.977          estimate D2E/DX2                !
 ! D247  D(77,41,42,40)        179.7936         estimate D2E/DX2                !
 ! D248  D(77,41,42,78)         -0.1061         estimate D2E/DX2                !
 --------------------------------------------------------------------------------
 Trust Radius=3.00D-01 FncErr=1.00D-07 GrdErr=1.00D-06 EigMax=2.50D+02 EigMin=1.00D-04
 Number of steps in this run=    468 maximum allowed number of steps=    468.
 GradGradGradGradGradGradGradGradGradGradGradGradGradGradGradGradGradGrad

 Stoichiometry    C31H36O11
 Framework group  C1[X(C31H36O11)]
 Deg. of freedom   228
 Full point group                 C1      NOp   1
 Largest Abelian subgroup         C1      NOp   1
 Largest concise Abelian subgroup C1      NOp   1
                         Standard orientation:                         
 ---------------------------------------------------------------------
 Center     Atomic      Atomic             Coordinates (Angstroms)
 Number     Number       Type             X           Y           Z
 ---------------------------------------------------------------------
      1          8           0       -0.628347    3.491421   -1.131632
      2          8           0       -1.279740    1.385107    1.423010
      3          8           0       -1.890995   -0.442409   -0.451264
      4          8           0       -1.005127   -2.859636   -0.159601
      5          8           0        1.832289    3.386381   -2.168313
      6          8           0        4.234326   -1.265344   -0.146134
      7          8           0        3.198757   -0.149041   -2.187745
      8          8           0        0.197091   -0.704364    3.938919
      9          8           0       -2.554379    3.198935    1.824256
     10          8           0       -2.153315   -1.191683   -2.558999
     11          8           0        5.580929    0.514600   -0.379783
     12          6           0        0.275736    0.717682   -0.187554
     13          6           0       -0.712371    1.833167    0.173837
     14          6           0        1.353767    1.072550   -1.271056
     15          6           0       -0.031595    3.220846    0.202626
     16          6           0       -0.448803   -0.636963   -0.484773
     17          6           0       -0.165246   -1.850209    0.442562
     18          6           0        2.010120    2.519750   -1.046279
     19          6           0        1.477505    3.217322    0.203712
     20          6           0        1.314141   -2.294282    0.384652
     21          6           0       -1.611978    2.389351   -0.949383
     22          6           0        2.566003    0.117441   -1.193357
     23          6           0       -0.586303   -1.620641    1.894451
     24          6           0        2.117332   -1.143078    0.994916
     25          6           0        0.837306    1.016902   -2.723759
     26          6           0        3.127606   -0.397711    0.164544
     27          6           0        0.479086   -1.025343    2.798401
     28          6           0        1.811165   -0.704433    2.212243
     29          6           0        1.549999   -3.554223    1.261389
     30          6           0        1.717480   -2.720332   -1.044089
     31          6           0        2.596805    0.301753    3.026955
     32          6           0       -2.155678    2.116038    2.166421
     33          6           0       -2.634095   -0.920979   -1.488419
     34          6           0       -2.531960    1.373377    3.416277
     35          6           0        5.400768   -0.661634   -0.540393
     36          6           0       -4.071765   -0.990630   -1.164514
     37          6           0        6.328293   -1.665821   -1.144132
     38          6           0       -4.935059   -1.422157   -2.158173
     39          6           0       -4.557746   -0.636499    0.082077
     40          6           0       -6.289915   -1.502666   -1.904182
     41          6           0       -5.913933   -0.714953    0.335035
     42          6           0       -6.778464   -1.148338   -0.656983
     43          1           0        0.796395    0.606312    0.735167
     44          1           0       -0.465103    3.877927    0.932236
     45          1           0       -0.227200   -0.970496   -1.475933
     46          1           0        3.079873    2.399693   -0.964390
     47          1           0        1.819078    2.731832    1.110196
     48          1           0        1.863331    4.228567    0.199867
     49          1           0       -1.719760    1.797144   -1.835318
     50          1           0       -2.546815    2.779300   -0.594653
     51          1           0       -0.883318   -2.564600    2.339007
     52          1           0       -1.439282   -0.964131    1.921249
     53          1           0        0.076705    1.760452   -2.879821
     54          1           0        1.651124    1.230508   -3.393477
     55          1           0        0.429327    0.049406   -2.975077
     56          1           0        3.496908    0.461496    0.699945
     57          1           0        2.593775   -3.833769    1.190999
     58          1           0        1.322894   -3.387341    2.304190
     59          1           0        0.955336   -4.381715    0.892228
     60          1           0        2.774032   -2.935014   -1.075389
     61          1           0        1.152804   -3.606197   -1.294464
     62          1           0        1.508230   -1.989175   -1.804236
     63          1           0       -1.174454   -3.595791    0.439811
     64          1           0        0.907165    3.683595   -2.179036
     65          1           0        2.251194    1.316765    2.854159
     66          1           0        2.434589    0.085436    4.073239
     67          1           0        3.656497    0.251759    2.822877
     68          1           0       -2.959223    2.064248    4.126203
     69          1           0       -3.276745    0.623638    3.168914
     70          1           0       -1.672862    0.865808    3.828932
     71          1           0        5.902056   -1.990297   -2.086164
     72          1           0        6.411036   -2.526867   -0.495286
     73          1           0        7.294535   -1.218162   -1.311988
     74          1           0       -4.531254   -1.688410   -3.113246
     75          1           0       -3.873986   -0.301798    0.831184
     76          1           0       -6.960549   -1.836479   -2.669910
     77          1           0       -6.297212   -0.438961    1.296805
     78          1           0       -7.830240   -1.208135   -0.458844
 ---------------------------------------------------------------------
 Rotational constants (GHZ):           0.1358103           0.0700197           0.0662885
 Standard basis: 3-21G* (6D, 7F)
 There are   450 symmetry adapted cartesian basis functions of A   symmetry.
 There are   450 symmetry adapted basis functions of A   symmetry.
   450 basis functions,   738 primitive gaussians,   450 cartesian basis functions
   155 alpha electrons      155 beta electrons
       nuclear repulsion energy      5870.6349805602 Hartrees.
 NAtoms=   78 NActive=   78 NUniq=   78 SFac= 1.00D+00 NAtFMM=   60 NAOKFM=T Big=T
 Integral buffers will be    131072 words long.
 Raffenetti 2 integral format.
 Two-electron integral symmetry is turned on.
 One-electron integrals computed using PRISM.
 NBasis=   450 RedAO= T EigKep=  1.43D-03  NBF=   450
 NBsUse=   450 1.00D-06 EigRej= -1.00D+00 NBFU=   450
 Initial guess from the read-write file.
 Requested convergence on RMS density matrix=1.00D-08 within 128 cycles.
 Requested convergence on MAX density matrix=1.00D-06.
 Requested convergence on             energy=1.00D-06.
 No special actions if energy rises.
 SCF Done:  E(RB3LYP) =  -2019.25071673     A.U. after   14 cycles
            NFock= 14  Conv=0.35D-08     -V/T= 2.0071

 **********************************************************************

            Population analysis using the SCF Density.

 **********************************************************************

 Orbital symmetries:
       Occupied  (A) (A) (A) (A) (A) (A) (A) (A) (A) (A) (A) (A)
                 (A) (A) (A) (A) (A) (A) (A) (A) (A) (A) (A) (A)
                 (A) (A) (A) (A) (A) (A) (A) (A) (A) (A) (A) (A)
                 (A) (A) (A) (A) (A) (A) (A) (A) (A) (A) (A) (A)
                 (A) (A) (A) (A) (A) (A) (A) (A) (A) (A) (A) (A)
                 (A) (A) (A) (A) (A) (A) (A) (A) (A) (A) (A) (A)
                 (A) (A) (A) (A) (A) (A) (A) (A) (A) (A) (A) (A)
                 (A) (A) (A) (A) (A) (A) (A) (A) (A) (A) (A) (A)
                 (A) (A) (A) (A) (A) (A) (A) (A) (A) (A) (A) (A)
                 (A) (A) (A) (A) (A) (A) (A) (A) (A) (A) (A) (A)
                 (A) (A) (A) (A) (A) (A) (A) (A) (A) (A) (A) (A)
                 (A) (A) (A) (A) (A) (A) (A) (A) (A) (A) (A) (A)
                 (A) (A) (A) (A) (A) (A) (A) (A) (A) (A) (A)
       Virtual   (A) (A) (A) (A) (A) (A) (A) (A) (A) (A) (A) (A)
                 (A) (A) (A) (A) (A) (A) (A) (A) (A) (A) (A) (A)
                 (A) (A) (A) (A) (A) (A) (A) (A) (A) (A) (A) (A)
                 (A) (A) (A) (A) (A) (A) (A) (A) (A) (A) (A) (A)
                 (A) (A) (A) (A) (A) (A) (A) (A) (A) (A) (A) (A)
                 (A) (A) (A) (A) (A) (A) (A) (A) (A) (A) (A) (A)
                 (A) (A) (A) (A) (A) (A) (A) (A) (A) (A) (A) (A)
                 (A) (A) (A) (A) (A) (A) (A) (A) (A) (A) (A) (A)
                 (A) (A) (A) (A) (A) (A) (A) (A) (A) (A) (A) (A)
                 (A) (A) (A) (A) (A) (A) (A) (A) (A) (A) (A) (A)
                 (A) (A) (A) (A) (A) (A) (A) (A) (A) (A) (A) (A)
                 (A) (A) (A) (A) (A) (A) (A) (A) (A) (A) (A) (A)
                 (A) (A) (A) (A) (A) (A) (A) (A) (A) (A) (A) (A)
                 (A) (A) (A) (A) (A) (A) (A) (A) (A) (A) (A) (A)
                 (A) (A) (A) (A) (A) (A) (A) (A) (A) (A) (A) (A)
                 (A) (A) (A) (A) (A) (A) (A) (A) (A) (A) (A) (A)
                 (A) (A) (A) (A) (A) (A) (A) (A) (A) (A) (A) (A)
                 (A) (A) (A) (A) (A) (A) (A) (A) (A) (A) (A) (A)
                 (A) (A) (A) (A) (A) (A) (A) (A) (A) (A) (A) (A)
                 (A) (A) (A) (A) (A) (A) (A) (A) (A) (A) (A) (A)
                 (A) (A) (A) (A) (A) (A) (A) (A) (A) (A) (A) (A)
                 (A) (A) (A) (A) (A) (A) (A) (A) (A) (A) (A) (A)
                 (A) (A) (A) (A) (A) (A) (A) (A) (A) (A) (A) (A)
                 (A) (A) (A) (A) (A) (A) (A) (A) (A) (A) (A) (A)
                 (A) (A) (A) (A) (A) (A) (A)
 The electronic state is 1-A.
 Alpha  occ. eigenvalues --  -19.09683 -19.08729 -19.08516 -19.05602 -19.05125
 Alpha  occ. eigenvalues --  -19.04695 -19.04484 -19.04250 -19.03461 -19.03405
 Alpha  occ. eigenvalues --  -19.00784 -10.27254 -10.26181 -10.26161 -10.22932
 Alpha  occ. eigenvalues --  -10.22750 -10.21699 -10.20746 -10.20439 -10.19623
 Alpha  occ. eigenvalues --  -10.18744 -10.18290 -10.17985 -10.16869 -10.15961
 Alpha  occ. eigenvalues --  -10.15848 -10.15337 -10.15265 -10.14953 -10.14288
 Alpha  occ. eigenvalues --  -10.14190 -10.13983 -10.13959 -10.13828 -10.13597
 Alpha  occ. eigenvalues --  -10.13440 -10.13235 -10.13064 -10.12957 -10.12582
 Alpha  occ. eigenvalues --  -10.10670 -10.09835  -1.12954  -1.12534  -1.12014
 Alpha  occ. eigenvalues --   -1.08228  -1.07551  -1.06243  -1.04635  -1.04134
 Alpha  occ. eigenvalues --   -1.03431  -1.02881  -1.00634  -0.89285  -0.88524
 Alpha  occ. eigenvalues --   -0.85379  -0.82124  -0.80003  -0.79676  -0.79154
 Alpha  occ. eigenvalues --   -0.78460  -0.77625  -0.76946  -0.75702  -0.74564
 Alpha  occ. eigenvalues --   -0.74097  -0.70730  -0.69946  -0.69647  -0.68812
 Alpha  occ. eigenvalues --   -0.67174  -0.65236  -0.64307  -0.63538  -0.62690
 Alpha  occ. eigenvalues --   -0.61580  -0.61045  -0.59488  -0.57915  -0.57552
 Alpha  occ. eigenvalues --   -0.56164  -0.55048  -0.54267  -0.53006  -0.52004
 Alpha  occ. eigenvalues --   -0.51522  -0.51109  -0.50921  -0.50340  -0.50044
 Alpha  occ. eigenvalues --   -0.49565  -0.49047  -0.48687  -0.48247  -0.47829
 Alpha  occ. eigenvalues --   -0.47544  -0.47219  -0.46955  -0.46627  -0.46297
 Alpha  occ. eigenvalues --   -0.46007  -0.45708  -0.44999  -0.44856  -0.44786
 Alpha  occ. eigenvalues --   -0.44592  -0.44233  -0.43521  -0.43442  -0.43213
 Alpha  occ. eigenvalues --   -0.42462  -0.42133  -0.41933  -0.41403  -0.41064
 Alpha  occ. eigenvalues --   -0.40958  -0.40495  -0.40170  -0.39781  -0.39537
 Alpha  occ. eigenvalues --   -0.39372  -0.38962  -0.38837  -0.38434  -0.38046
 Alpha  occ. eigenvalues --   -0.37759  -0.37570  -0.37173  -0.36947  -0.36549
 Alpha  occ. eigenvalues --   -0.36162  -0.36052  -0.35874  -0.35560  -0.35107
 Alpha  occ. eigenvalues --   -0.34628  -0.33662  -0.33241  -0.32821  -0.32354
 Alpha  occ. eigenvalues --   -0.30497  -0.30021  -0.29714  -0.29149  -0.28432
 Alpha  occ. eigenvalues --   -0.28191  -0.27507  -0.27417  -0.27110  -0.26962
 Alpha  occ. eigenvalues --   -0.26477  -0.25521  -0.25249  -0.24983  -0.23966
 Alpha virt. eigenvalues --   -0.07518  -0.04649  -0.02561  -0.00849   0.00117
 Alpha virt. eigenvalues --    0.01403   0.03691   0.05240   0.05956   0.06641
 Alpha virt. eigenvalues --    0.07877   0.08642   0.10067   0.10531   0.11125
 Alpha virt. eigenvalues --    0.11807   0.12378   0.12715   0.13262   0.14393
 Alpha virt. eigenvalues --    0.14536   0.14827   0.15046   0.15193   0.15896
 Alpha virt. eigenvalues --    0.16106   0.16368   0.16483   0.16664   0.16731
 Alpha virt. eigenvalues --    0.17295   0.17442   0.17797   0.17897   0.17999
 Alpha virt. eigenvalues --    0.18412   0.18754   0.19127   0.19444   0.19571
 Alpha virt. eigenvalues --    0.19916   0.20126   0.20550   0.20932   0.21131
 Alpha virt. eigenvalues --    0.21565   0.21992   0.22472   0.22851   0.23167
 Alpha virt. eigenvalues --    0.23532   0.23986   0.24117   0.24630   0.25083
 Alpha virt. eigenvalues --    0.25442   0.25685   0.26032   0.26896   0.27269
 Alpha virt. eigenvalues --    0.27864   0.28095   0.28527   0.28779   0.29070
 Alpha virt. eigenvalues --    0.29756   0.29893   0.30913   0.31650   0.31911
 Alpha virt. eigenvalues --    0.32159   0.32735   0.33271   0.33575   0.33767
 Alpha virt. eigenvalues --    0.34338   0.34553   0.35370   0.37040   0.38514
 Alpha virt. eigenvalues --    0.39721   0.40828   0.41146   0.41791   0.44041
 Alpha virt. eigenvalues --    0.45012   0.45643   0.47506   0.51424   0.54518
 Alpha virt. eigenvalues --    0.58232   0.61518   0.63541   0.63784   0.64424
 Alpha virt. eigenvalues --    0.65069   0.65833   0.67030   0.67102   0.67729
 Alpha virt. eigenvalues --    0.68205   0.68905   0.69247   0.69586   0.69857
 Alpha virt. eigenvalues --    0.70308   0.70535   0.70966   0.71246   0.71694
 Alpha virt. eigenvalues --    0.71867   0.72496   0.72773   0.73250   0.73491
 Alpha virt. eigenvalues --    0.73667   0.73996   0.74370   0.74638   0.75077
 Alpha virt. eigenvalues --    0.75599   0.75934   0.76241   0.76885   0.77318
 Alpha virt. eigenvalues --    0.78046   0.78272   0.78641   0.79038   0.79910
 Alpha virt. eigenvalues --    0.80043   0.80287   0.80804   0.81205   0.81735
 Alpha virt. eigenvalues --    0.82197   0.82482   0.82877   0.83348   0.83472
 Alpha virt. eigenvalues --    0.84890   0.85064   0.85354   0.85594   0.87348
 Alpha virt. eigenvalues --    0.88319   0.88952   0.89134   0.89746   0.90003
 Alpha virt. eigenvalues --    0.91060   0.92095   0.92886   0.93200   0.95148
 Alpha virt. eigenvalues --    0.95867   0.96550   0.97596   0.98023   0.98256
 Alpha virt. eigenvalues --    0.99909   1.00573   1.01345   1.01708   1.01978
 Alpha virt. eigenvalues --    1.03015   1.03138   1.04224   1.04506   1.05029
 Alpha virt. eigenvalues --    1.05098   1.06136   1.06333   1.06450   1.07087
 Alpha virt. eigenvalues --    1.07561   1.07955   1.08380   1.08813   1.09217
 Alpha virt. eigenvalues --    1.10302   1.10977   1.11114   1.11607   1.12384
 Alpha virt. eigenvalues --    1.13260   1.13465   1.13944   1.15542   1.16484
 Alpha virt. eigenvalues --    1.16706   1.16945   1.18264   1.18630   1.18996
 Alpha virt. eigenvalues --    1.19890   1.20763   1.21217   1.22676   1.23328
 Alpha virt. eigenvalues --    1.24211   1.24745   1.25141   1.27560   1.28318
 Alpha virt. eigenvalues --    1.29407   1.30315   1.31399   1.33546   1.34514
 Alpha virt. eigenvalues --    1.34965   1.36430   1.37007   1.38829   1.41325
 Alpha virt. eigenvalues --    1.42240   1.44359   1.44605   1.46765   1.49583
 Alpha virt. eigenvalues --    1.50158   1.50917   1.51192   1.52997   1.53345
 Alpha virt. eigenvalues --    1.53554   1.54175   1.54822   1.54964   1.56039
 Alpha virt. eigenvalues --    1.57265   1.57972   1.59286   1.60492   1.61965
 Alpha virt. eigenvalues --    1.63810   1.64090   1.64558   1.66096   1.67803
 Alpha virt. eigenvalues --    1.68210   1.69002   1.69286   1.70139   1.71040
 Alpha virt. eigenvalues --    1.71496   1.72507   1.74287   1.75044   1.76551
 Alpha virt. eigenvalues --    1.77671   1.78783   1.80817   1.82385   1.83414
 Alpha virt. eigenvalues --    1.85307   1.85465   1.86718   1.89072   1.90783
 Alpha virt. eigenvalues --    1.93543   1.94336   1.95711   1.96465   1.96525
 Alpha virt. eigenvalues --    1.98178   2.00362   2.01102   2.05386   2.08322
 Alpha virt. eigenvalues --    2.11311   2.12231   2.15062   2.20556   2.22032
 Alpha virt. eigenvalues --    2.28494   2.32603   2.33480   2.42423   2.49190
 Alpha virt. eigenvalues --    2.55720   2.57662   2.61690   2.89830   3.17013
 Alpha virt. eigenvalues --    3.20953   3.21910   3.26194   3.28116   3.32142
 Alpha virt. eigenvalues --    3.32748   3.35831   3.43111   3.46613   3.51920
          Condensed to atoms (all electrons):
 Mulliken charges:
               1
     1  O   -0.491278
     2  O   -0.553070
     3  O   -0.545970
     4  O   -0.565871
     5  O   -0.567296
     6  O   -0.518484
     7  O   -0.440310
     8  O   -0.473667
     9  O   -0.478273
    10  O   -0.490292
    11  O   -0.481907
    12  C   -0.279438
    13  C    0.123732
    14  C   -0.280879
    15  C    0.082809
    16  C    0.067316
    17  C    0.229154
    18  C    0.090386
    19  C   -0.465046
    20  C   -0.248793
    21  C   -0.095158
    22  C    0.551643
    23  C   -0.484347
    24  C    0.088752
    25  C   -0.525387
    26  C   -0.116176
    27  C    0.467611
    28  C   -0.064718
    29  C   -0.506124
    30  C   -0.546195
    31  C   -0.615462
    32  C    0.663104
    33  C    0.739343
    34  C   -0.663508
    35  C    0.669239
    36  C   -0.110299
    37  C   -0.642833
    38  C   -0.162202
    39  C   -0.191322
    40  C   -0.183560
    41  C   -0.182241
    42  C   -0.174777
    43  H    0.280392
    44  H    0.238121
    45  H    0.277168
    46  H    0.238074
    47  H    0.208394
    48  H    0.236267
    49  H    0.216283
    50  H    0.241115
    51  H    0.216831
    52  H    0.272466
    53  H    0.196432
    54  H    0.239866
    55  H    0.202014
    56  H    0.254735
    57  H    0.218364
    58  H    0.197727
    59  H    0.180313
    60  H    0.215980
    61  H    0.206361
    62  H    0.207990
    63  H    0.353328
    64  H    0.364095
    65  H    0.217531
    66  H    0.238123
    67  H    0.212735
    68  H    0.232157
    69  H    0.233011
    70  H    0.253217
    71  H    0.251958
    72  H    0.229823
    73  H    0.229790
    74  H    0.216339
    75  H    0.210524
    76  H    0.196475
    77  H    0.191607
    78  H    0.196189
 Sum of Mulliken charges =  -0.00000
 Mulliken charges with hydrogens summed into heavy atoms:
               1
     1  O   -0.491278
     2  O   -0.553070
     3  O   -0.545970
     4  O   -0.212543
     5  O   -0.203201
     6  O   -0.518484
     7  O   -0.440310
     8  O   -0.473667
     9  O   -0.478273
    10  O   -0.490292
    11  O   -0.481907
    12  C    0.000954
    13  C    0.123732
    14  C   -0.280879
    15  C    0.320930
    16  C    0.344483
    17  C    0.229154
    18  C    0.328460
    19  C   -0.020385
    20  C   -0.248793
    21  C    0.362240
    22  C    0.551643
    23  C    0.004950
    24  C    0.088752
    25  C    0.112925
    26  C    0.138559
    27  C    0.467611
    28  C   -0.064718
    29  C    0.090279
    30  C    0.084135
    31  C    0.052928
    32  C    0.663104
    33  C    0.739343
    34  C    0.054876
    35  C    0.669239
    36  C   -0.110299
    37  C    0.068738
    38  C    0.054136
    39  C    0.019202
    40  C    0.012915
    41  C    0.009366
    42  C    0.021412
 Electronic spatial extent (au):  <R**2>=          18519.1425
 Charge=             -0.0000 electrons
 Dipole moment (field-independent basis, Debye):
    X=             -2.3469    Y=             -4.5745    Z=              3.8754  Tot=              6.4384
 Quadrupole moment (field-independent basis, Debye-Ang):
   XX=           -227.4871   YY=           -248.3900   ZZ=           -257.7540
   XY=             -4.2364   XZ=              5.4997   YZ=              4.3879
 Traceless Quadrupole moment (field-independent basis, Debye-Ang):
   XX=             17.0566   YY=             -3.8463   ZZ=            -13.2103
   XY=             -4.2364   XZ=              5.4997   YZ=              4.3879
 Octapole moment (field-independent basis, Debye-Ang**2):
  XXX=           -120.1849  YYY=            -71.2360  ZZZ=            -20.0318  XYY=             37.9693
  XXY=           -114.2188  XXZ=              2.4558  XZZ=            -28.7250  YZZ=              4.3099
  YYZ=             32.6163  XYZ=             29.3427
 Hexadecapole moment (field-independent basis, Debye-Ang**3):
 XXXX=         -12826.5521 YYYY=          -5412.2886 ZZZZ=          -4629.2091 XXXY=           -189.1583
 XXXZ=             -0.5669 YYYX=             34.5088 YYYZ=             -6.2383 ZZZX=            -32.2292
 ZZZY=             98.3929 XXYY=          -3407.0626 XXZZ=          -2973.5797 YYZZ=          -1666.5007
 XXYZ=            174.3443 YYXZ=             63.9425 ZZXY=            -29.5614
 N-N= 5.870634980560D+03 E-N=-1.645253598395D+04  KE= 2.004989133973D+03
 Calling FoFJK, ICntrl=      2127 FMM=T ISym2X=0 I1Cent= 0 IOpClX= 0 NMat=1 NMatS=1 NMatT=0.
 ***** Axes restored to original set *****
 -------------------------------------------------------------------
 Center     Atomic                   Forces (Hartrees/Bohr)
 Number     Number              X              Y              Z
 -------------------------------------------------------------------
      1        8           0.006099904    0.016034095   -0.019878303
      2        8           0.007878189   -0.026058371    0.006256173
      3        8          -0.005596952    0.013419823    0.023475025
      4        8          -0.002005598    0.008916078   -0.027662988
      5        8           0.028051454   -0.001795443   -0.011146438
      6        8          -0.009012883   -0.027615910    0.001866049
      7        8           0.020541075   -0.010749508   -0.030464081
      8        8          -0.010640309    0.015112339    0.036649024
      9        8          -0.011696776    0.037910636   -0.013155456
     10        8           0.015937489   -0.013856410   -0.036758415
     11        8           0.010618421    0.040610815    0.002152561
     12        6          -0.002496590    0.000196106   -0.009184946
     13        6          -0.000672593    0.002270750   -0.003884594
     14        6          -0.004227492   -0.005116617    0.002586129
     15        6           0.009074119   -0.004951056    0.005645646
     16        6           0.006443176    0.003682789    0.005734054
     17        6          -0.001441587   -0.001021637    0.006376767
     18        6          -0.007005627    0.003307916    0.000953152
     19        6          -0.003743191   -0.002609664   -0.001662326
     20        6           0.006124741    0.000087478   -0.000688278
     21        6          -0.001174143   -0.005769669    0.002605995
     22        6          -0.018344702    0.010605899    0.018544520
     23        6           0.007141919    0.000583086   -0.004437855
     24        6           0.008619555   -0.007861025   -0.020747775
     25        6           0.001256526    0.000526567    0.005011966
     26        6          -0.009967465    0.000388106    0.004304650
     27        6           0.010411978   -0.008805554   -0.025360059
     28        6          -0.006869370    0.007975166    0.019226509
     29        6          -0.000785407    0.002791525   -0.001808464
     30        6          -0.000900800    0.000961685    0.004873836
     31        6          -0.001940652   -0.005220730   -0.004444921
     32        6          -0.000437067   -0.013496176    0.013260755
     33        6          -0.016384810    0.003093144    0.012048452
     34        6           0.001963755   -0.000564505   -0.001945486
     35        6           0.003434164   -0.017849087   -0.004488044
     36        6           0.009217305    0.000933509    0.000717327
     37        6          -0.002200763   -0.000274745    0.001270887
     38        6          -0.000239173   -0.001568236   -0.004193876
     39        6           0.000251385    0.001435764    0.004213018
     40        6          -0.001424868   -0.001181573   -0.002694772
     41        6          -0.001016961    0.001235790    0.003145516
     42        6          -0.005155660    0.000108140    0.000880534
     43        1           0.006159823   -0.002805852    0.010492552
     44        1          -0.004395286    0.006364535    0.008286529
     45        1           0.003059704   -0.004489632   -0.011621716
     46        1           0.009660108   -0.002462891    0.001340902
     47        1           0.001934881   -0.003888268    0.008545350
     48        1           0.003816995    0.007442249   -0.000458405
     49        1          -0.000854168   -0.006995933   -0.008408372
     50        1          -0.009607542    0.003552485    0.004054367
     51        1          -0.002716219   -0.007542650    0.003383266
     52        1          -0.007105806    0.006612883   -0.000985878
     53        1          -0.005873295    0.007065011   -0.001135882
     54        1           0.007579574    0.000847534   -0.004749669
     55        1          -0.004098695   -0.007956312   -0.000732199
     56        1           0.004041924    0.009613098    0.005111067
     57        1           0.007626702   -0.002394434   -0.000423530
     58        1          -0.002067502    0.002752885    0.007833845
     59        1          -0.005244351   -0.005510845   -0.003298289
     60        1           0.008670367   -0.001266290    0.000901584
     61        1          -0.005674615   -0.006287247   -0.001431484
     62        1          -0.001254216    0.007375188   -0.006279599
     63        1          -0.003516130   -0.015090839    0.019052144
     64        1          -0.025830392    0.005636524    0.003201826
     65        1          -0.002166875    0.007903933   -0.002178731
     66        1          -0.003568994   -0.001206699    0.008358251
     67        1           0.008064562   -0.000858842   -0.001989019
     68        1          -0.002973533    0.005734456    0.004615077
     69        1          -0.005796751   -0.005669334   -0.001417949
     70        1           0.006491085   -0.005971047    0.004299463
     71        1          -0.002720488   -0.002964835   -0.006947546
     72        1           0.000281678   -0.006981770    0.004657353
     73        1           0.007254768    0.002980474   -0.000899391
     74        1           0.004392478   -0.002665144   -0.007518761
     75        1           0.006386742    0.003045353    0.006612622
     76        1          -0.005522416   -0.002723427   -0.006388366
     77        1          -0.003413850    0.002851138    0.007652508
     78        1          -0.008703984    0.000133255    0.001274610
 -------------------------------------------------------------------
 Cartesian Forces:  Max     0.040610815 RMS     0.009812294

 GradGradGradGradGradGradGradGradGradGradGradGradGradGradGradGradGradGrad
 Berny optimization.
 FormGI is forming the generalized inverse of G from B-inverse, IUseBI=4.
 Internal  Forces:  Max     0.042329118 RMS     0.006201015
 Search for a local minimum.
 Step number   1 out of a maximum of  468
 All quantities printed in internal units (Hartrees-Bohrs-Radians)
 Mixed Optimization -- RFO/linear search
 Second derivative matrix not updated -- first step.
 ITU=  0
     Eigenvalues ---    0.00230   0.00230   0.00248   0.00319   0.00454
     Eigenvalues ---    0.00498   0.00566   0.00576   0.00688   0.00712
     Eigenvalues ---    0.00743   0.00840   0.00956   0.00956   0.01081
     Eigenvalues ---    0.01092   0.01101   0.01111   0.01119   0.01160
     Eigenvalues ---    0.01217   0.01310   0.01333   0.01388   0.01456
     Eigenvalues ---    0.01611   0.01763   0.01928   0.02040   0.02071
     Eigenvalues ---    0.02185   0.02199   0.02281   0.02287   0.02300
     Eigenvalues ---    0.02302   0.02311   0.02313   0.02317   0.02322
     Eigenvalues ---    0.02345   0.02574   0.02887   0.02979   0.03177
     Eigenvalues ---    0.03446   0.03599   0.03944   0.04092   0.04114
     Eigenvalues ---    0.04298   0.04407   0.04586   0.04678   0.04728
     Eigenvalues ---    0.04895   0.05061   0.05184   0.05270   0.05276
     Eigenvalues ---    0.05343   0.05419   0.05476   0.05509   0.05750
     Eigenvalues ---    0.05760   0.05775   0.05809   0.06039   0.06075
     Eigenvalues ---    0.06412   0.06880   0.06910   0.07234   0.07349
     Eigenvalues ---    0.07399   0.07457   0.07462   0.07645   0.07755
     Eigenvalues ---    0.07775   0.07957   0.08005   0.08013   0.08074
     Eigenvalues ---    0.08195   0.08325   0.08571   0.08744   0.08841
     Eigenvalues ---    0.09794   0.09825   0.10012   0.10760   0.11276
     Eigenvalues ---    0.11401   0.11831   0.12489   0.13416   0.14487
     Eigenvalues ---    0.15734   0.16000   0.16000   0.16000   0.16000
     Eigenvalues ---    0.16000   0.16000   0.16000   0.16000   0.16000
     Eigenvalues ---    0.16000   0.16000   0.16000   0.16000   0.16000
     Eigenvalues ---    0.16000   0.16000   0.16000   0.16000   0.16000
     Eigenvalues ---    0.16000   0.16000   0.16000   0.16924   0.17385
     Eigenvalues ---    0.17678   0.18456   0.19313   0.20737   0.21213
     Eigenvalues ---    0.22000   0.22000   0.22704   0.23488   0.23559
     Eigenvalues ---    0.24074   0.24337   0.24548   0.24613   0.24797
     Eigenvalues ---    0.24868   0.24979   0.24999   0.24999   0.25000
     Eigenvalues ---    0.25000   0.25000   0.25000   0.25000   0.25000
     Eigenvalues ---    0.25000   0.25255   0.26108   0.26178   0.26662
     Eigenvalues ---    0.27153   0.27399   0.27638   0.27781   0.28123
     Eigenvalues ---    0.28448   0.28780   0.29668   0.29866   0.30432
     Eigenvalues ---    0.30913   0.31054   0.31161   0.32194   0.32503
     Eigenvalues ---    0.32973   0.34947   0.35107   0.35270   0.35355
     Eigenvalues ---    0.35414   0.35538   0.35552   0.35568   0.35652
     Eigenvalues ---    0.35711   0.35836   0.35915   0.35955   0.35969
     Eigenvalues ---    0.36000   0.36019   0.36036   0.36045   0.36137
     Eigenvalues ---    0.36164   0.36231   0.36283   0.36395   0.36558
     Eigenvalues ---    0.36572   0.36814   0.36825   0.36985   0.37043
     Eigenvalues ---    0.37076   0.37094   0.37159   0.37357   0.37479
     Eigenvalues ---    0.37515   0.37828   0.38958   0.39137   0.39560
     Eigenvalues ---    0.41154   0.43630   0.43870   0.48143   0.48213
[...]
     60          1           0        3.040539   -2.363032   -1.872098
     61          1           0        1.499598   -3.201393   -2.254057
     62          1           0        1.603699   -1.445490   -2.310578
     63          1           0       -1.603417   -2.892877   -0.808494
     64          1           0        0.461341    4.044576   -0.850041
     65          1           0        2.399315    0.613726    2.962319
     66          1           0        2.519359   -0.846950    3.934653
     67          1           0        3.816358   -0.446808    2.770206
     68          1           0       -2.952815    0.316878    4.630007
     69          1           0       -3.258932   -0.782955    3.266924
     70          1           0       -1.613575   -0.664369    3.914369
     71          1           0        6.107450   -0.670197   -2.653284
     72          1           0        6.698317   -1.579210   -1.251829
     73          1           0        7.372844    0.048433   -1.616336
     74          1           0       -4.498945   -0.124041   -3.491031
     75          1           0       -3.896010   -0.903205    0.671108
     76          1           0       -6.978222   -0.253097   -3.168442
     77          1           0       -6.367156   -1.036540    1.015275
     78          1           0       -7.895706   -0.713143   -0.908686
 ---------------------------------------------------------------------
 Rotational constants (GHZ):           0.1373739           0.0686700           0.0668533

 **********************************************************************

            Population analysis using the SCF Density.

 **********************************************************************

 Orbital symmetries:
       Occupied  (A) (A) (A) (A) (A) (A) (A) (A) (A) (A) (A) (A)
                 (A) (A) (A) (A) (A) (A) (A) (A) (A) (A) (A) (A)
                 (A) (A) (A) (A) (A) (A) (A) (A) (A) (A) (A) (A)
                 (A) (A) (A) (A) (A) (A) (A) (A) (A) (A) (A) (A)
                 (A) (A) (A) (A) (A) (A) (A) (A) (A) (A) (A) (A)
                 (A) (A) (A) (A) (A) (A) (A) (A) (A) (A) (A) (A)
                 (A) (A) (A) (A) (A) (A) (A) (A) (A) (A) (A) (A)
                 (A) (A) (A) (A) (A) (A) (A) (A) (A) (A) (A) (A)
                 (A) (A) (A) (A) (A) (A) (A) (A) (A) (A) (A) (A)
                 (A) (A) (A) (A) (A) (A) (A) (A) (A) (A) (A) (A)
                 (A) (A) (A) (A) (A) (A) (A) (A) (A) (A) (A) (A)
                 (A) (A) (A) (A) (A) (A) (A) (A) (A) (A) (A) (A)
                 (A) (A) (A) (A) (A) (A) (A) (A) (A) (A) (A)
       Virtual   (A) (A) (A) (A) (A) (A) (A) (A) (A) (A) (A) (A)
                 (A) (A) (A) (A) (A) (A) (A) (A) (A) (A) (A) (A)
                 (A) (A) (A) (A) (A) (A) (A) (A) (A) (A) (A) (A)
                 (A) (A) (A) (A) (A) (A) (A) (A) (A) (A) (A) (A)
                 (A) (A) (A) (A) (A) (A) (A) (A) (A) (A) (A) (A)
                 (A) (A) (A) (A) (A) (A) (A) (A) (A) (A) (A) (A)
                 (A) (A) (A) (A) (A) (A) (A) (A) (A) (A) (A) (A)
                 (A) (A) (A) (A) (A) (A) (A) (A) (A) (A) (A) (A)
                 (A) (A) (A) (A) (A) (A) (A) (A) (A) (A) (A) (A)
                 (A) (A) (A) (A) (A) (A) (A) (A) (A) (A) (A) (A)
                 (A) (A) (A) (A) (A) (A) (A) (A) (A) (A) (A) (A)
                 (A) (A) (A) (A) (A) (A) (A) (A) (A) (A) (A) (A)
                 (A) (A) (A) (A) (A) (A) (A) (A) (A) (A) (A) (A)
                 (A) (A) (A) (A) (A) (A) (A) (A) (A) (A) (A) (A)
                 (A) (A) (A) (A) (A) (A) (A) (A) (A) (A) (A) (A)
                 (A) (A) (A) (A) (A) (A) (A) (A) (A) (A) (A) (A)
                 (A) (A) (A) (A) (A) (A) (A) (A) (A) (A) (A) (A)
                 (A) (A) (A) (A) (A) (A) (A) (A) (A) (A) (A) (A)
                 (A) (A) (A) (A) (A) (A) (A) (A) (A) (A) (A) (A)
                 (A) (A) (A) (A) (A) (A) (A) (A) (A) (A) (A) (A)
                 (A) (A) (A) (A) (A) (A) (A) (A) (A) (A) (A) (A)
                 (A) (A) (A) (A) (A) (A) (A) (A) (A) (A) (A) (A)
                 (A) (A) (A) (A) (A) (A) (A) (A) (A) (A) (A) (A)
                 (A) (A) (A) (A) (A) (A) (A) (A) (A) (A) (A) (A)
                 (A) (A) (A) (A) (A) (A) (A)
 The electronic state is 1-A.
 Alpha  occ. eigenvalues --  -19.10808 -19.09965 -19.08719 -19.06309 -19.05975
 Alpha  occ. eigenvalues --  -19.05161 -19.05032 -19.04759 -19.04172 -19.04072
 Alpha  occ. eigenvalues --  -19.00761 -10.28366 -10.27817 -10.26637 -10.23234
 Alpha  occ. eigenvalues --  -10.22906 -10.22333 -10.21004 -10.20629 -10.20454
 Alpha  occ. eigenvalues --  -10.19520 -10.18912 -10.18475 -10.17300 -10.16858
 Alpha  occ. eigenvalues --  -10.16118 -10.15998 -10.15952 -10.15905 -10.15828
 Alpha  occ. eigenvalues --  -10.15721 -10.15708 -10.15535 -10.15422 -10.13891
 Alpha  occ. eigenvalues --  -10.13805 -10.13674 -10.13418 -10.13129 -10.11584
 Alpha  occ. eigenvalues --  -10.10745 -10.09752  -1.12157  -1.11429  -1.10952
 Alpha  occ. eigenvalues --   -1.06742  -1.05820  -1.05079  -1.04677  -1.03248
 Alpha  occ. eigenvalues --   -1.02465  -1.02089  -0.99389  -0.89163  -0.88669
 Alpha  occ. eigenvalues --   -0.85140  -0.81621  -0.79899  -0.79477  -0.78744
 Alpha  occ. eigenvalues --   -0.78551  -0.77745  -0.76985  -0.75376  -0.74253
 Alpha  occ. eigenvalues --   -0.73745  -0.70182  -0.69355  -0.68824  -0.68363
 Alpha  occ. eigenvalues --   -0.67140  -0.64975  -0.64203  -0.63765  -0.62648
 Alpha  occ. eigenvalues --   -0.61263  -0.60201  -0.58553  -0.58106  -0.56801
 Alpha  occ. eigenvalues --   -0.56385  -0.54560  -0.53638  -0.52679  -0.51753
 Alpha  occ. eigenvalues --   -0.51697  -0.51354  -0.50706  -0.50384  -0.49519
 Alpha  occ. eigenvalues --   -0.48824  -0.48569  -0.48381  -0.48082  -0.47633
 Alpha  occ. eigenvalues --   -0.47144  -0.47074  -0.46848  -0.46402  -0.46199
 Alpha  occ. eigenvalues --   -0.45752  -0.45553  -0.45475  -0.45408  -0.44668
 Alpha  occ. eigenvalues --   -0.44469  -0.44143  -0.43437  -0.43173  -0.42949
 Alpha  occ. eigenvalues --   -0.42363  -0.42122  -0.41642  -0.41424  -0.41068
 Alpha  occ. eigenvalues --   -0.40613  -0.40185  -0.39748  -0.39386  -0.39037
 Alpha  occ. eigenvalues --   -0.38950  -0.38752  -0.38700  -0.38305  -0.38095
 Alpha  occ. eigenvalues --   -0.38008  -0.37606  -0.37400  -0.36789  -0.36548
 Alpha  occ. eigenvalues --   -0.36328  -0.35944  -0.35735  -0.35438  -0.34928
 Alpha  occ. eigenvalues --   -0.34023  -0.33483  -0.32927  -0.32582  -0.32073
 Alpha  occ. eigenvalues --   -0.31863  -0.30169  -0.30135  -0.29755  -0.29091
 Alpha  occ. eigenvalues --   -0.28346  -0.28211  -0.28024  -0.27988  -0.27709
 Alpha  occ. eigenvalues --   -0.26683  -0.25724  -0.25030  -0.24797  -0.23857
 Alpha virt. eigenvalues --   -0.08189  -0.06778  -0.03113  -0.02281  -0.01062
 Alpha virt. eigenvalues --    0.00371   0.02823   0.03601   0.04151   0.06004
 Alpha virt. eigenvalues --    0.07995   0.08306   0.09612   0.10016   0.10555
 Alpha virt. eigenvalues --    0.11164   0.11789   0.12164   0.13325   0.13514
 Alpha virt. eigenvalues --    0.14044   0.14506   0.14729   0.14883   0.15165
 Alpha virt. eigenvalues --    0.15173   0.15620   0.15874   0.16096   0.16305
 Alpha virt. eigenvalues --    0.16472   0.16684   0.16950   0.17415   0.17647
 Alpha virt. eigenvalues --    0.17954   0.18229   0.18450   0.18813   0.18924
 Alpha virt. eigenvalues --    0.19065   0.19281   0.20123   0.20318   0.20400
 Alpha virt. eigenvalues --    0.21087   0.21356   0.21596   0.21841   0.22271
 Alpha virt. eigenvalues --    0.22472   0.22911   0.23035   0.23491   0.24227
 Alpha virt. eigenvalues --    0.24684   0.25083   0.25155   0.25606   0.26162
 Alpha virt. eigenvalues --    0.26550   0.27088   0.27231   0.27602   0.27979
 Alpha virt. eigenvalues --    0.29425   0.29480   0.29713   0.30163   0.30344
 Alpha virt. eigenvalues --    0.30710   0.31343   0.31787   0.32073   0.32125
 Alpha virt. eigenvalues --    0.32846   0.33789   0.34700   0.36198   0.37590
 Alpha virt. eigenvalues --    0.38387   0.38641   0.40127   0.40305   0.42605
 Alpha virt. eigenvalues --    0.43639   0.44928   0.45993   0.50259   0.52288
 Alpha virt. eigenvalues --    0.55490   0.60559   0.61107   0.63453   0.64453
 Alpha virt. eigenvalues --    0.65472   0.65991   0.66522   0.66849   0.67318
 Alpha virt. eigenvalues --    0.67778   0.67861   0.68318   0.69006   0.69949
 Alpha virt. eigenvalues --    0.70163   0.70435   0.70872   0.71286   0.71505
 Alpha virt. eigenvalues --    0.71790   0.71865   0.72232   0.72631   0.72844
 Alpha virt. eigenvalues --    0.73055   0.73324   0.73918   0.73991   0.74478
 Alpha virt. eigenvalues --    0.75134   0.75330   0.75767   0.76058   0.76305
 Alpha virt. eigenvalues --    0.76575   0.77521   0.77787   0.78317   0.78487
 Alpha virt. eigenvalues --    0.79220   0.79331   0.79781   0.80099   0.81011
 Alpha virt. eigenvalues --    0.81357   0.82720   0.83049   0.83658   0.83908
 Alpha virt. eigenvalues --    0.84666   0.84722   0.85155   0.86039   0.86646
 Alpha virt. eigenvalues --    0.88009   0.88303   0.88675   0.89206   0.90283
 Alpha virt. eigenvalues --    0.91662   0.92162   0.92258   0.92853   0.94363
 Alpha virt. eigenvalues --    0.94928   0.96237   0.96441   0.97057   0.97892
 Alpha virt. eigenvalues --    0.98985   0.99782   1.00291   1.00861   1.01754
 Alpha virt. eigenvalues --    1.02276   1.02602   1.03129   1.03887   1.04449
 Alpha virt. eigenvalues --    1.04975   1.05488   1.05594   1.06034   1.06420
 Alpha virt. eigenvalues --    1.06619   1.07594   1.07986   1.08119   1.09354
 Alpha virt. eigenvalues --    1.09516   1.10417   1.10844   1.11359   1.11617
 Alpha virt. eigenvalues --    1.11940   1.12605   1.13433   1.14092   1.14953
 Alpha virt. eigenvalues --    1.15878   1.16532   1.17291   1.18247   1.18770
 Alpha virt. eigenvalues --    1.19203   1.19980   1.20723   1.22535   1.22651
 Alpha virt. eigenvalues --    1.23225   1.24171   1.25264   1.26826   1.27830
 Alpha virt. eigenvalues --    1.28582   1.30544   1.31988   1.32988   1.33983
 Alpha virt. eigenvalues --    1.35487   1.35699   1.38077   1.40499   1.41333
 Alpha virt. eigenvalues --    1.42128   1.43016   1.45484   1.46109   1.47952
 Alpha virt. eigenvalues --    1.49197   1.50817   1.51154   1.51300   1.52622
 Alpha virt. eigenvalues --    1.53196   1.53298   1.54560   1.55376   1.56360
 Alpha virt. eigenvalues --    1.57668   1.58785   1.60995   1.61132   1.62823
 Alpha virt. eigenvalues --    1.63591   1.64783   1.65468   1.66281   1.66568
 Alpha virt. eigenvalues --    1.67484   1.68297   1.68644   1.69091   1.70179
 Alpha virt. eigenvalues --    1.71343   1.71907   1.73529   1.74958   1.76195
 Alpha virt. eigenvalues --    1.76350   1.78307   1.79776   1.80200   1.81956
 Alpha virt. eigenvalues --    1.83269   1.84302   1.84879   1.87838   1.89638
 Alpha virt. eigenvalues --    1.90744   1.91771   1.94340   1.94743   1.97559
 Alpha virt. eigenvalues --    1.98827   1.99125   2.00286   2.04630   2.07604
 Alpha virt. eigenvalues --    2.08733   2.10759   2.10932   2.18355   2.19663
 Alpha virt. eigenvalues --    2.27943   2.30737   2.31610   2.42701   2.45599
 Alpha virt. eigenvalues --    2.53917   2.54700   2.59509   2.85284   3.13862
 Alpha virt. eigenvalues --    3.17729   3.18439   3.23067   3.25719   3.28013
 Alpha virt. eigenvalues --    3.29459   3.32935   3.39099   3.43279   3.47295
          Condensed to atoms (all electrons):
 Mulliken charges:
               1
     1  O   -0.466632
     2  O   -0.524879
     3  O   -0.523363
     4  O   -0.552086
     5  O   -0.557690
     6  O   -0.491814
     7  O   -0.439400
     8  O   -0.473133
     9  O   -0.475790
    10  O   -0.483562
    11  O   -0.481757
    12  C   -0.275061
    13  C    0.110301
    14  C   -0.270074
    15  C    0.066858
    16  C    0.035955
    17  C    0.211045
    18  C    0.074694
    19  C   -0.473300
    20  C   -0.227356
    21  C   -0.119592
    22  C    0.537138
    23  C   -0.472546
    24  C    0.082930
    25  C   -0.528593
    26  C   -0.117645
    27  C    0.457146
    28  C   -0.065204
    29  C   -0.493929
    30  C   -0.548409
    31  C   -0.619294
    32  C    0.642326
    33  C    0.691562
    34  C   -0.664480
    35  C    0.656021
    36  C   -0.109146
    37  C   -0.637551
    38  C   -0.159801
    39  C   -0.191365
    40  C   -0.182445
    41  C   -0.179589
    42  C   -0.172509
    43  H    0.282988
    44  H    0.241929
    45  H    0.270164
    46  H    0.238495
    47  H    0.218546
    48  H    0.236645
    49  H    0.221791
    50  H    0.242465
    51  H    0.245131
    52  H    0.251256
    53  H    0.189870
    54  H    0.230932
    55  H    0.205573
    56  H    0.256074
    57  H    0.200712
    58  H    0.188075
    59  H    0.215480
    60  H    0.215117
    61  H    0.215260
    62  H    0.198920
    63  H    0.342228
    64  H    0.361458
    65  H    0.221358
    66  H    0.236483
    67  H    0.212225
    68  H    0.228910
    69  H    0.225762
    70  H    0.263979
    71  H    0.253330
    72  H    0.230552
    73  H    0.228344
    74  H    0.221823
    75  H    0.214896
    76  H    0.202985
    77  H    0.199138
    78  H    0.203124
 Sum of Mulliken charges =  -0.00000
 Mulliken charges with hydrogens summed into heavy atoms:
               1
     1  O   -0.466632
     2  O   -0.524879
     3  O   -0.523363
     4  O   -0.209858
     5  O   -0.196232
     6  O   -0.491814
     7  O   -0.439400
     8  O   -0.473133
     9  O   -0.475790
    10  O   -0.483562
    11  O   -0.481757
    12  C    0.007927
    13  C    0.110301
    14  C   -0.270074
    15  C    0.308788
    16  C    0.306119
    17  C    0.211045
    18  C    0.313189
    19  C   -0.018108
    20  C   -0.227356
    21  C    0.344663
    22  C    0.537138
    23  C    0.023841
    24  C    0.082930
    25  C    0.097782
    26  C    0.138429
    27  C    0.457146
    28  C   -0.065204
    29  C    0.110338
    30  C    0.080889
    31  C    0.050772
    32  C    0.642326
    33  C    0.691562
    34  C    0.054171
    35  C    0.656021
    36  C   -0.109146
    37  C    0.074674
    38  C    0.062022
    39  C    0.023531
    40  C    0.020540
    41  C    0.019549
    42  C    0.030615
 Electronic spatial extent (au):  <R**2>=          18559.4862
 Charge=             -0.0000 electrons
 Dipole moment (field-independent basis, Debye):
    X=             -3.5234    Y=             -4.3341    Z=              1.8163  Tot=              5.8735
 Quadrupole moment (field-independent basis, Debye-Ang):
   XX=           -212.0689   YY=           -267.2086   ZZ=           -254.0134
   XY=             -3.6722   XZ=              6.9623   YZ=              5.0261
 Traceless Quadrupole moment (field-independent basis, Debye-Ang):
   XX=             32.3614   YY=            -22.7783   ZZ=             -9.5831
   XY=             -3.6722   XZ=              6.9623   YZ=              5.0261
 Octapole moment (field-independent basis, Debye-Ang**2):
  XXX=           -119.1668  YYY=            -44.3149  ZZZ=            -13.6842  XYY=              8.1103
  XXY=            -95.2687  XXZ=            -52.9667  XZZ=            -16.0751  YZZ=             13.3764
  YYZ=             19.2147  XYZ=             47.6950
 Hexadecapole moment (field-independent basis, Debye-Ang**3):
 XXXX=         -12318.0949 YYYY=          -5378.5101 ZZZZ=          -4724.7895 XXXY=           -116.3874
 XXXZ=            -12.9000 YYYX=            -67.3553 YYYZ=             36.2535 ZZZX=            -33.2174
 ZZZY=             78.2278 XXYY=          -3523.0435 XXZZ=          -2934.7884 YYZZ=          -1694.1460
 XXYZ=            -21.1525 YYXZ=             47.2323 ZZXY=             27.9385
 N-N= 5.850043016156D+03 E-N=-1.640942568379D+04  KE= 2.002806508328D+03
 Unable to Open any file for archive entry.
 1\1\GINC-LAC-441\FOpt\RB3LYP\3-21G*\C31H36O11\LIZHEN6\05-Apr-2023\0\\#
  B3LYP/3-21G* Geom=Chk Guess=CopyChk Opt\\CLR\\0,1\O,-0.3883570129,3.3
 858028932,-1.2904663809\O,-1.2155222727,1.3435184948,1.3367392842\O,-1
 .8372061267,-0.6599512073,-0.35057344\O,-0.8741394221,-3.0984436002,0.
 2891594092\O,2.0309675407,3.0711025309,-2.3200509078\O,4.3620759271,-1
 .4539903423,0.0739398197\O,3.2910111701,-0.5976858063,-2.116479786\O,0
 .2066482266,-0.208388226,4.0121392663\O,-2.351314926,3.336026254,1.580
 1322138\O,-1.9325589822,-0.9102409479,-2.6478091538\O,5.5652068569,0.4
 366603685,-0.4443278669\C,0.3861240175,0.5478265785,-0.1970629268\C,-0
 .5658090149,1.7260993579,0.0720119388\C,1.4765470215,0.7868196831,-1.3
 013148167\C,0.196625353,3.0842153104,0.0849536652\C,-0.3489444784,-0.8
 288271259,-0.3624233714\C,-0.0913792137,-1.9361091452,0.7094332064\C,2
 .2077765727,2.237763493,-1.1553049916\C,1.7094764751,3.0017940277,0.08
 2409449\C,1.387047372,-2.4150466895,0.7145377524\C,-1.4085604061,2.275
 1645793,-1.1086747068\C,2.6553372459,-0.1983721968,-1.1414766881\C,-0.
 5165823196,-1.5288034615,2.1297262441\C,2.2069822712,-1.2149774244,1.1
 990868762\C,0.9651608143,0.6713598834,-2.7543360539\C,3.2140735655,-0.
 5618565778,0.2917274944\C,0.5273265465,-0.7814809044,2.9533781131\C,1.
 890529636,-0.6168398421,2.3748529952\C,1.5551257503,-3.5826333767,1.73
 43872178\C,1.8029959032,-2.9961532483,-0.6592741495\C,2.7185010828,0.4
 493912828,3.0638420459\C,-2.0487687876,2.2325638975,2.0183538091\C,-2.
 5049695095,-0.7370548329,-1.5739901871\C,-2.4838840586,1.5941174168,3.
 3168330573\C,5.491522128,-0.7846311476,-0.4221163259\C,-3.9627508651,-
 0.5731684108,-1.3913946251\C,6.5042247546,-1.7977197899,-0.8822805748\
 C,-4.7735292502,-0.7134921209,-2.5241715556\C,-4.5282749151,-0.2738871
 183,-0.1457074813\C,-6.1529983354,-0.5652105037,-2.4104562046\C,-5.909
 1243488,-0.1223921672,-0.0374681228\C,-6.7212380917,-0.2706622959,-1.1
 666193897\H,0.9174864976,0.4880166332,0.7429561604\H,-0.2105307786,3.7
 833580269,0.8113226054\H,-0.1198392035,-1.2684518551,-1.3289054203\H,3
 .2858026513,2.0639880784,-1.082425055\H,2.0303343308,2.5267208324,1.01
 61832301\H,2.1482561471,4.0040622263,0.04559686\H,-1.4816882828,1.6508
 560072,-1.9950563047\H,-2.3633147875,2.6914949853,-0.795824716\H,-0.77
 29127999,-2.451810595,2.661477976\H,-1.4047204845,-0.8980976597,2.0832
 773148\H,0.3812698781,1.5490097512,-3.0196880993\H,1.8244751658,0.6235
 174272,-3.4215698902\H,0.3459710413,-0.2138023355,-2.9024477011\H,3.58
 08675614,0.3711320884,0.7269198528\H,2.5721752886,-3.9790502659,1.6529
 928282\H,1.4009768304,-3.2509673496,2.7632741751\H,0.8338688666,-4.364
 881962,1.4867523135\H,2.8795757701,-3.1753490811,-0.6638217859\H,1.256
 6095451,-3.9300691355,-0.8038831044\H,1.5726702992,-2.3457506435,-1.50
 19281275\H,-1.8143357009,-2.778197008,0.2237483157\H,1.0719279261,3.37
 71920297,-2.2609806191\H,2.5071668447,1.4513366882,2.6676844863\H,2.43
 12037786,0.4600713944,4.1185592357\H,3.789548806,0.2548463586,2.973553
 5747\H,-2.8733783347,2.364231375,3.9833438708\H,-3.2830450295,0.870697
 8136,3.1099212743\H,-1.6483980027,1.0518230786,3.7698999002\H,6.142878
 6905,-2.2310089843,-1.8218202359\H,6.5922941918,-2.6020585457,-0.14854
 44299\H,7.4650912476,-1.3112522133,-1.0480541666\H,-4.301897985,-0.936
 6463539,-3.4731790316\H,-3.8789677106,-0.1504455555,0.7097680904\H,-6.
 7844993227,-0.6753158506,-3.2836273096\H,-6.3544377124,0.1142196605,0.
 9214115374\H,-7.7948591373,-0.1526266332,-1.0777517559\\Version=ES64L-
 G16RevC.01\State=1-A\HF=-2019.2760435\RMSD=9.129e-09\RMSF=3.486e-06\Di
 pole=-1.5953812,-1.1561535,1.2074664\Quadrupole=22.5801436,-12.3918734
 ,-10.1882701,-4.7325655,8.5841897,5.1705098\PG=C01 [X(C31H36O11)]\\@
 The archive entry for this job was punched.


 THERE IS NOTHING NOBLE IN BEING SUPERIOR TO SOME OTHER MAN.
 TRUE NOBILITY IS BEING SUPERIOR TO YOUR FORMER SELF.

                                                   -- HINDU PROVERB
 Job cpu time:       0 days 10 hours  8 minutes 10.7 seconds.
 Elapsed time:       0 days  1 hours 16 minutes 22.7 seconds.
 File lengths (MBytes):  RWF=    368 Int=      0 D2E=      0 Chk=     48 Scr=     32
 Normal termination of Gaussian 16 at Wed Apr  5 19:36:05 2023.
