 Entering Gaussian System, Link 0=g16
 Initial command:
 /opt/software/Gaussian/g16-AVX2-C.01/g16/l1.exe "/mnt/gs21/scratch/lizhen6/Gau-26958.inp" -scrdir="/mnt/gs21/scratch/lizhen6/"
 Entering Link 1 = /opt/software/Gaussian/g16-AVX2-C.01/g16/l1.exe PID=     26959.
  
 Copyright (c) 1988-2019, Gaussian, Inc.  All Rights Reserved.
  
 This is part of the Gaussian(R) 16 program.  It is based on
 the Gaussian(R) 09 system (copyright 2009, Gaussian, Inc.),
 the Gaussian(R) 03 system (copyright 2003, Gaussian, Inc.),
 the Gaussian(R) 98 system (copyright 1998, Gaussian, Inc.),
 the Gaussian(R) 94 system (copyright 1995, Gaussian, Inc.),
 the Gaussian 92(TM) system (copyright 1992, Gaussian, Inc.),
 the Gaussian 90(TM) system (copyright 1990, Gaussian, Inc.),
 the Gaussian 88(TM) system (copyright 1988, Gaussian, Inc.),
 the Gaussian 86(TM) system (copyright 1986, Carnegie Mellon
 University), and the Gaussian 82(TM) system (copyright 1983,
 Carnegie Mellon University). Gaussian is a federally registered
 trademark of Gaussian, Inc.
  
 This software contains proprietary and confidential information,
 including trade secrets, belonging to Gaussian, Inc.
  
 This software is provided under written license and may be
 used, copied, transmitted, or stored only in accord with that
 written license.
  
 The following legend is applicable only to US Government
 contracts under FAR:
  
                    RESTRICTED RIGHTS LEGEND
  
 Use, reproduction and disclosure by the US Government is
 subject to restrictions as set forth in subparagraphs (a)
 and (c) of the Commercial Computer Software - Restricted
 Rights clause in FAR 52.227-19.
  
 Gaussian, Inc.
 340 Quinnipiac St., Bldg. 40, Wallingford CT 06492
  
  
 ---------------------------------------------------------------
 Warning -- This program may not be used in any manner that
 competes with the business of Gaussian, Inc. or will provide
 assistance to any competitor of Gaussian, Inc.  The licensee
 of this program is prohibited from giving any competitor of
 Gaussian, Inc. access to this program.  By using this program,
 the user acknowledges that Gaussian, Inc. is engaged in the
 business of creating and licensing software in the field of
 computational chemistry and represents and warrants to the
 licensee that it is not a competitor of Gaussian, Inc. and that
 it will not use this program in any manner prohibited above.
 ---------------------------------------------------------------
  

 Cite this work as:
 Gaussian 16, Revision C.01,
 M. J. Frisch, G. W. Trucks, H. B. Schlegel, G. E. Scuseria, 
 M. A. Robb, J. R. Cheeseman, G. Scalmani, V. Barone, 
 G. A. Petersson, H. Nakatsuji, X. Li, M. Caricato, A. V. Marenich, 
 J. Bloino, B. G. Janesko, R. Gomperts, B. Mennucci, H. P. Hratchian, 
 J. V. Ortiz, A. F. Izmaylov, J. L. Sonnenberg, D. Williams-Young, 
 F. Ding, F. Lipparini, F. Egidi, J. Goings, B. Peng, A. Petrone, 
 T. Henderson, D. Ranasinghe, V. G. Zakrzewski, J. Gao, N. Rega, 
 G. Zheng, W. Liang, M. Hada, M. Ehara, K. Toyota, R. Fukuda, 
 J. Hasegawa, M. Ishida, T. Nakajima, Y. Honda, O. Kitao, H. Nakai, 
 T. Vreven, K. Throssell, J. A. Montgomery, Jr., J. E. Peralta, 
 F. Ogliaro, M. J. Bearpark, J. J. Heyd, E. N. Brothers, K. N. Kudin, 
 V. N. Staroverov, T. A. Keith, R. Kobayashi, J. Normand, 
 K. Raghavachari, A. P. Rendell, J. C. Burant, S. S. Iyengar, 
 J. Tomasi, M. Cossi, J. M. Millam, M. Klene, C. Adamo, R. Cammi, 
 J. W. Ochterski, R. L. Martin, K. Morokuma, O. Farkas, 
 J. B. Foresman, and D. J. Fox, Gaussian, Inc., Wallingford CT, 2019.
 
 ******************************************
 Gaussian 16:  ES64L-G16RevC.01  3-Jul-2019
                 5-Apr-2023 
 ******************************************
 %Chk=6WZ3_small_opt2.chk
 %Mem=32GB
 %NProcShared=8
 Will use up to    8 processors via shared memory.
 --------------------------------------
 # HF/3-21G* Geom=Chk Guess=CopyChk Opt
 --------------------------------------
 1/18=20,19=15,29=2,38=1/1,3;
 2/9=110,12=2,40=1/2;
 3/5=5,7=1,11=9,14=-4,25=1,30=1,71=1/1,2,3;
 4/5=18/1;
 5/5=2/2;
 6/7=2,8=2,9=2,10=2,28=1/1;
 7//1,2,3,16;
 1/18=20,19=15/3(2);
 2/9=110/2;
 99//99;
 2/9=110/2;
 3/5=5,7=1,11=9,14=-2,25=1,30=1,71=1/1,2,3;
 4/5=5,16=3,69=1/1;
 5/5=2,38=5/2;
 7//1,2,3,16;
 1/18=20,19=15/3(-5);
 2/9=110/2;
 6/7=2,8=2,9=2,10=2,19=2,28=1/1;
 99/9=1/99;
 ---
 CLR
 ---
 Structure from the checkpoint file:  "6WZ3_small_opt2.chk"
 Charge =  0 Multiplicity = 1
 Z-Matrix found in chk file.
 O,0,0.74095342,3.03430688,-1.70677482
 O,0,-1.41038043,1.95417992,0.78221138
 O,0,-1.87569784,-0.06078924,-0.12419724
 O,0,-1.08680947,-2.62823159,-1.20261161
 O,0,3.50743567,2.59987786,-0.96550104
 O,0,4.18693036,-1.75001951,0.66310663
 O,0,3.34100418,-0.64397481,-1.73919355
 O,0,-0.74897224,-1.63092451,3.47329109
 O,0,-3.26501842,3.09266066,-0.03998078
 O,0,-2.42449619,-1.45809081,-1.90340439
 O,0,5.43763973,0.21724542,0.69738293
 C,0,0.43353873,0.73637962,0.09642967
 C,0,-0.34563564,2.07191867,-0.1589865
 C,0,1.82187744,0.94766529,-0.63941877
 C,0,0.52437093,3.25955535,-0.25224365
 C,0,-0.53821803,-0.37145325,-0.52852064
 C,0,-0.35409404,-1.91609669,-0.20257081
 C,0,2.63969877,2.09500074,0.05352317
 C,0,1.72075752,3.20824135,0.62240695
 C,0,1.1123021,-2.25839082,-0.24568249
 C,0,-0.61835104,2.42495551,-1.58013776
 C,0,2.79917086,-0.24290917,-0.67599361
 C,0,-0.9341683,-2.37967208,1.17639912
 C,0,1.79001936,-1.5482342,0.93257054
 C,0,1.39896305,1.32769868,-2.07090989
 C,0,3.05534369,-0.87971988,0.66145217
 C,0,-0.17878697,-1.80055725,2.363003
 C,0,1.2729475,-1.44488181,2.16695723
 C,0,1.34455188,-3.7766282,-0.12400331
 C,0,1.69198856,-1.76859068,-1.58501913
 C,0,2.13185501,-0.94389109,3.3436677
 C,0,-2.25017126,3.10208994,0.70435725
 C,0,-2.79100439,-0.89375538,-0.83864433
 C,0,-1.90878596,4.35093303,1.53658885
 C,0,5.3570644,-0.99101157,0.35122167
 C,0,-4.22642279,-1.10023765,-0.32612857
 C,0,6.51911789,-1.65356202,-0.41105707
 C,0,-5.05683587,-1.91972691,-1.02123661
 C,0,-4.65327736,-0.464373,0.79968494
 C,0,-6.37980294,-2.11188225,-0.60621962
 C,0,-5.9725861,-0.62881828,1.24950831
 C,0,-6.84481787,-1.45735178,0.53711084
 H,0,0.60567455,0.54924258,1.13582065
 H,0,-0.01276388,4.1661758,-0.06621512
 H,0,-0.42408126,-0.24530115,-1.58524921
 H,0,3.21399251,1.74006674,0.88191131
 H,0,1.36160173,2.97801322,1.60378084
 H,0,2.28026957,4.11975759,0.65744219
 H,0,-0.91323184,1.63442219,-2.23911056
 H,0,-1.36289215,3.18873884,-1.66158986
 H,0,-0.85502261,-3.44522799,1.22846858
 H,0,-1.96078373,-2.08667993,1.23610477
 H,0,0.77494674,2.19579638,-2.04010461
 H,0,2.27156806,1.53593964,-2.65437193
 H,0,0.86080203,0.51564548,-2.5111839
 H,0,3.21331922,-0.11980703,1.39717185
 H,0,2.39553904,-3.97936264,-0.15553587
 H,0,0.94094528,-4.12624332,0.80170949
 H,0,0.86201054,-4.27992406,-0.93654216
 H,0,2.73932739,-1.98344261,-1.61991075
 H,0,1.19854187,-2.26888035,-2.39165668
 H,0,1.54117818,-0.71345966,-1.67425348
 H,0,-0.98924327,-3.57208517,-1.05871867
 H,0,2.98045665,2.94271582,-1.69144068
 H,0,2.06105664,0.12081452,3.41102086
 H,0,1.77883573,-1.38349384,4.25355584
 H,0,3.15215693,-1.22470705,3.18530244
 H,0,-2.26894462,5.22309191,1.03475945
 H,0,-2.37016465,4.27576288,2.49762006
 H,0,-0.84798685,4.4214914,1.65547896
 H,0,6.13429975,-2.4234329,-1.04580054
 H,0,7.20865158,-2.07814753,0.28720286
 H,0,7.02109534,-0.91915486,-1.00578386
 H,0,-4.69761432,-2.42138843,-1.8953773
 H,0,-3.98227843,0.16640544,1.34238445
 H,0,-7.02934899,-2.75590302,-1.1620063
 H,0,-6.30966558,-0.12351854,2.13242281
 H,0,-7.85644507,-1.58985487,0.86325682
 Recover connectivity data from disk.

 GradGradGradGradGradGradGradGradGradGradGradGradGradGradGradGradGradGrad
 Berny optimization.
 Initialization pass.
                           ----------------------------
                           !    Initial Parameters    !
                           ! (Angstroms and Degrees)  !
 --------------------------                            --------------------------
 ! Name  Definition              Value          Derivative Info.                !
 --------------------------------------------------------------------------------
 ! R1    R(1,15)                 1.4877         estimate D2E/DX2                !
 ! R2    R(1,21)                 1.495          estimate D2E/DX2                !
 ! R3    R(1,53)                 0.903          estimate D2E/DX2                !
 ! R4    R(2,13)                 1.426          estimate D2E/DX2                !
 ! R5    R(2,32)                 1.4244         estimate D2E/DX2                !
 ! R6    R(3,16)                 1.4314         estimate D2E/DX2                !
 ! R7    R(3,33)                 1.429          estimate D2E/DX2                !
 ! R8    R(4,17)                 1.4297         estimate D2E/DX2                !
 ! R9    R(4,63)                 0.9597         estimate D2E/DX2                !
 ! R10   R(5,18)                 1.4305         estimate D2E/DX2                !
 ! R11   R(5,64)                 0.9603         estimate D2E/DX2                !
 ! R12   R(6,26)                 1.4276         estimate D2E/DX2                !
 ! R13   R(6,35)                 1.4292         estimate D2E/DX2                !
 ! R14   R(7,22)                 1.2589         estimate D2E/DX2                !
 ! R15   R(8,27)                 1.2596         estimate D2E/DX2                !
 ! R16   R(9,32)                 1.2586         estimate D2E/DX2                !
 ! R17   R(10,33)                1.2596         estimate D2E/DX2                !
 ! R18   R(11,35)                1.2594         estimate D2E/DX2                !
 ! R19   R(12,13)                1.5672         estimate D2E/DX2                !
 ! R20   R(12,14)                1.5854         estimate D2E/DX2                !
 ! R21   R(12,16)                1.6007         estimate D2E/DX2                !
 ! R22   R(12,43)                1.07           estimate D2E/DX2                !
 ! R23   R(13,15)                1.4752         estimate D2E/DX2                !
 ! R24   R(13,21)                1.4895         estimate D2E/DX2                !
 ! R25   R(14,18)                1.5702         estimate D2E/DX2                !
 ! R26   R(14,22)                1.5407         estimate D2E/DX2                !
 ! R27   R(14,25)                1.5403         estimate D2E/DX2                !
 ! R28   R(15,19)                1.4829         estimate D2E/DX2                !
 ! R29   R(15,44)                1.0701         estimate D2E/DX2                !
 ! R30   R(16,17)                1.5894         estimate D2E/DX2                !
 ! R31   R(16,45)                1.0703         estimate D2E/DX2                !
 ! R32   R(17,20)                1.5064         estimate D2E/DX2                !
 ! R33   R(17,23)                1.5662         estimate D2E/DX2                !
 ! R34   R(18,19)                1.5516         estimate D2E/DX2                !
 ! R35   R(18,46)                1.0687         estimate D2E/DX2                !
 ! R36   R(19,47)                1.0701         estimate D2E/DX2                !
 ! R37   R(19,48)                1.0701         estimate D2E/DX2                !
 ! R38   R(20,24)                1.5336         estimate D2E/DX2                !
 ! R39   R(20,29)                1.5407         estimate D2E/DX2                !
 ! R40   R(20,30)                1.5394         estimate D2E/DX2                !
 ! R41   R(21,49)                1.0706         estimate D2E/DX2                !
 ! R42   R(21,50)                1.0697         estimate D2E/DX2                !
 ! R43   R(22,26)                1.5033         estimate D2E/DX2                !
 ! R44   R(23,27)                1.5212         estimate D2E/DX2                !
 ! R45   R(23,51)                1.0698         estimate D2E/DX2                !
 ! R46   R(23,52)                1.0693         estimate D2E/DX2                !
 ! R47   R(24,26)                1.4565         estimate D2E/DX2                !
 ! R48   R(24,28)                1.3423         estimate D2E/DX2                !
 ! R49   R(25,53)                1.0696         estimate D2E/DX2                !
 ! R50   R(25,54)                1.0702         estimate D2E/DX2                !
 ! R51   R(25,55)                1.0691         estimate D2E/DX2                !
 ! R52   R(26,56)                1.0694         estimate D2E/DX2                !
 ! R53   R(27,28)                1.5075         estimate D2E/DX2                !
 ! R54   R(28,31)                1.5406         estimate D2E/DX2                !
 ! R55   R(29,57)                1.0708         estimate D2E/DX2                !
 ! R56   R(29,58)                1.0687         estimate D2E/DX2                !
 ! R57   R(29,59)                1.0707         estimate D2E/DX2                !
 ! R58   R(30,60)                1.0697         estimate D2E/DX2                !
 ! R59   R(30,61)                1.0698         estimate D2E/DX2                !
 ! R60   R(30,62)                1.0696         estimate D2E/DX2                !
 ! R61   R(31,65)                1.0692         estimate D2E/DX2                !
 ! R62   R(31,66)                1.0704         estimate D2E/DX2                !
 ! R63   R(31,67)                1.07           estimate D2E/DX2                !
 ! R64   R(32,34)                1.5391         estimate D2E/DX2                !
 ! R65   R(33,36)                1.5381         estimate D2E/DX2                !
 ! R66   R(34,68)                1.0687         estimate D2E/DX2                !
 ! R67   R(34,69)                1.0687         estimate D2E/DX2                !
 ! R68   R(34,70)                1.0698         estimate D2E/DX2                !
 ! R69   R(35,37)                1.5396         estimate D2E/DX2                !
 ! R70   R(36,38)                1.3581         estimate D2E/DX2                !
 ! R71   R(36,39)                1.3616         estimate D2E/DX2                !
 ! R72   R(37,71)                1.0694         estimate D2E/DX2                !
 ! R73   R(37,72)                1.0693         estimate D2E/DX2                !
 ! R74   R(37,73)                1.0701         estimate D2E/DX2                !
 ! R75   R(38,40)                1.3998         estimate D2E/DX2                !
 ! R76   R(38,74)                1.07           estimate D2E/DX2                !
 ! R77   R(39,41)                1.4036         estimate D2E/DX2                !
 ! R78   R(39,75)                1.0689         estimate D2E/DX2                !
 ! R79   R(40,42)                1.3971         estimate D2E/DX2                !
 ! R80   R(40,76)                1.0703         estimate D2E/DX2                !
 ! R81   R(41,42)                1.3981         estimate D2E/DX2                !
 ! R82   R(41,77)                1.0717         estimate D2E/DX2                !
 ! R83   R(42,78)                1.0711         estimate D2E/DX2                !
 ! A1    A(15,1,21)             81.1719         estimate D2E/DX2                !
 ! A2    A(15,1,53)            120.4634         estimate D2E/DX2                !
 ! A3    A(21,1,53)             71.7602         estimate D2E/DX2                !
 ! A4    A(13,2,32)            109.7307         estimate D2E/DX2                !
 ! A5    A(16,3,33)            109.3153         estimate D2E/DX2                !
 ! A6    A(17,4,63)            109.4439         estimate D2E/DX2                !
 ! A7    A(18,5,64)            109.3673         estimate D2E/DX2                !
 ! A8    A(26,6,35)            108.964          estimate D2E/DX2                !
 ! A9    A(13,12,14)           104.2507         estimate D2E/DX2                !
 ! A10   A(13,12,16)           102.9641         estimate D2E/DX2                !
 ! A11   A(13,12,43)           112.7886         estimate D2E/DX2                !
 ! A12   A(14,12,16)           116.2727         estimate D2E/DX2                !
 ! A13   A(14,12,43)           109.4676         estimate D2E/DX2                !
 ! A14   A(16,12,43)           110.8466         estimate D2E/DX2                !
 ! A15   A(2,13,12)            101.1456         estimate D2E/DX2                !
 ! A16   A(2,13,15)            123.2691         estimate D2E/DX2                !
 ! A17   A(2,13,21)            120.8374         estimate D2E/DX2                !
 ! A18   A(12,13,15)           113.7768         estimate D2E/DX2                !
 ! A19   A(12,13,21)           116.6481         estimate D2E/DX2                !
 ! A20   A(15,13,21)            81.7697         estimate D2E/DX2                !
 ! A21   A(12,14,18)           110.405          estimate D2E/DX2                !
 ! A22   A(12,14,22)           117.6121         estimate D2E/DX2                !
 ! A23   A(12,14,25)           102.932          estimate D2E/DX2                !
 ! A24   A(18,14,22)           104.1666         estimate D2E/DX2                !
 ! A25   A(18,14,25)           111.893          estimate D2E/DX2                !
 ! A26   A(22,14,25)           110.0447         estimate D2E/DX2                !
 ! A27   A(1,15,13)             91.4768         estimate D2E/DX2                !
 ! A28   A(1,15,19)            116.999          estimate D2E/DX2                !
 ! A29   A(1,15,44)            111.797          estimate D2E/DX2                !
 ! A30   A(13,15,19)           114.2472         estimate D2E/DX2                !
 ! A31   A(13,15,44)           112.0291         estimate D2E/DX2                !
 ! A32   A(19,15,44)           109.3752         estimate D2E/DX2                !
 ! A33   A(3,16,12)            107.8646         estimate D2E/DX2                !
 ! A34   A(3,16,17)            105.1443         estimate D2E/DX2                !
 ! A35   A(3,16,45)            110.6673         estimate D2E/DX2                !
 ! A36   A(12,16,17)           121.4819         estimate D2E/DX2                !
 ! A37   A(12,16,45)           103.8367         estimate D2E/DX2                !
 ! A38   A(17,16,45)           107.7382         estimate D2E/DX2                !
 ! A39   A(4,17,16)            106.3355         estimate D2E/DX2                !
 ! A40   A(4,17,20)            111.449          estimate D2E/DX2                !
 ! A41   A(4,17,23)            106.1774         estimate D2E/DX2                !
 ! A42   A(16,17,20)           109.1309         estimate D2E/DX2                !
 ! A43   A(16,17,23)           115.171          estimate D2E/DX2                !
 ! A44   A(20,17,23)           108.5705         estimate D2E/DX2                !
 ! A45   A(5,18,14)            105.0387         estimate D2E/DX2                !
 ! A46   A(5,18,19)            111.5446         estimate D2E/DX2                !
 ! A47   A(5,18,46)            110.0865         estimate D2E/DX2                !
 ! A48   A(14,18,19)           112.1856         estimate D2E/DX2                !
 ! A49   A(14,18,46)           112.2911         estimate D2E/DX2                !
 ! A50   A(19,18,46)           105.8052         estimate D2E/DX2                !
 ! A51   A(15,19,18)           106.6426         estimate D2E/DX2                !
 ! A52   A(15,19,47)           106.1162         estimate D2E/DX2                !
 ! A53   A(15,19,48)           114.3096         estimate D2E/DX2                !
 ! A54   A(18,19,47)           112.375          estimate D2E/DX2                !
 ! A55   A(18,19,48)           108.2698         estimate D2E/DX2                !
 ! A56   A(47,19,48)           109.1913         estimate D2E/DX2                !
 ! A57   A(17,20,24)           107.6357         estimate D2E/DX2                !
 ! A58   A(17,20,29)           111.6159         estimate D2E/DX2                !
 ! A59   A(17,20,30)           108.6121         estimate D2E/DX2                !
 ! A60   A(24,20,29)           109.2094         estimate D2E/DX2                !
 ! A61   A(24,20,30)           110.775          estimate D2E/DX2                !
 ! A62   A(29,20,30)           108.9948         estimate D2E/DX2                !
 ! A63   A(1,21,13)             90.6276         estimate D2E/DX2                !
 ! A64   A(1,21,49)            119.9517         estimate D2E/DX2                !
 ! A65   A(1,21,50)            109.5944         estimate D2E/DX2                !
 ! A66   A(13,21,49)           117.5608         estimate D2E/DX2                !
 ! A67   A(13,21,50)           111.6726         estimate D2E/DX2                !
 ! A68   A(49,21,50)           106.777          estimate D2E/DX2                !
 ! A69   A(7,22,14)            122.6311         estimate D2E/DX2                !
 ! A70   A(7,22,26)            122.893          estimate D2E/DX2                !
 ! A71   A(14,22,26)           114.4754         estimate D2E/DX2                !
 ! A72   A(17,23,27)           112.9673         estimate D2E/DX2                !
 ! A73   A(17,23,51)           108.0761         estimate D2E/DX2                !
 ! A74   A(17,23,52)           108.8841         estimate D2E/DX2                !
 ! A75   A(27,23,51)           107.7279         estimate D2E/DX2                !
 ! A76   A(27,23,52)           109.2015         estimate D2E/DX2                !
 ! A77   A(51,23,52)           109.953          estimate D2E/DX2                !
 ! A78   A(20,24,26)           116.9641         estimate D2E/DX2                !
 ! A79   A(20,24,28)           124.8867         estimate D2E/DX2                !
 ! A80   A(26,24,28)           118.0657         estimate D2E/DX2                !
 ! A81   A(14,25,53)           109.4926         estimate D2E/DX2                !
 ! A82   A(14,25,54)           109.3193         estimate D2E/DX2                !
 ! A83   A(14,25,55)           109.4843         estimate D2E/DX2                !
 ! A84   A(53,25,54)           109.4814         estimate D2E/DX2                !
 ! A85   A(53,25,55)           109.5534         estimate D2E/DX2                !
 ! A86   A(54,25,55)           109.4961         estimate D2E/DX2                !
 ! A87   A(6,26,22)            113.226          estimate D2E/DX2                !
 ! A88   A(6,26,24)            114.1163         estimate D2E/DX2                !
 ! A89   A(6,26,56)            108.3792         estimate D2E/DX2                !
 ! A90   A(22,26,24)           102.2393         estimate D2E/DX2                !
 ! A91   A(22,26,56)           109.6465         estimate D2E/DX2                !
 ! A92   A(24,26,56)           109.0509         estimate D2E/DX2                !
 ! A93   A(8,27,23)            120.9349         estimate D2E/DX2                !
 ! A94   A(8,27,28)            121.251          estimate D2E/DX2                !
 ! A95   A(23,27,28)           117.8133         estimate D2E/DX2                !
 ! A96   A(24,28,27)           118.1902         estimate D2E/DX2                !
 ! A97   A(24,28,31)           120.8427         estimate D2E/DX2                !
 ! A98   A(27,28,31)           120.951          estimate D2E/DX2                !
 ! A99   A(20,29,57)           109.4016         estimate D2E/DX2                !
 ! A100  A(20,29,58)           109.503          estimate D2E/DX2                !
 ! A101  A(20,29,59)           109.5932         estimate D2E/DX2                !
 ! A102  A(57,29,58)           109.5265         estimate D2E/DX2                !
 ! A103  A(57,29,59)           109.3289         estimate D2E/DX2                !
 ! A104  A(58,29,59)           109.4741         estimate D2E/DX2                !
 ! A105  A(20,30,60)           109.4607         estimate D2E/DX2                !
 ! A106  A(20,30,61)           109.4833         estimate D2E/DX2                !
 ! A107  A(20,30,62)           109.4733         estimate D2E/DX2                !
 ! A108  A(60,30,61)           109.4561         estimate D2E/DX2                !
 ! A109  A(60,30,62)           109.4791         estimate D2E/DX2                !
 ! A110  A(61,30,62)           109.4747         estimate D2E/DX2                !
 ! A111  A(28,31,65)           109.5747         estimate D2E/DX2                !
 ! A112  A(28,31,66)           109.3809         estimate D2E/DX2                !
 ! A113  A(28,31,67)           109.4648         estimate D2E/DX2                !
 ! A114  A(65,31,66)           109.4863         estimate D2E/DX2                !
 ! A115  A(65,31,67)           109.4998         estimate D2E/DX2                !
 ! A116  A(66,31,67)           109.4206         estimate D2E/DX2                !
 ! A117  A(2,32,9)             120.1107         estimate D2E/DX2                !
 ! A118  A(2,32,34)            119.5759         estimate D2E/DX2                !
 ! A119  A(9,32,34)            120.3133         estimate D2E/DX2                !
 ! A120  A(3,33,10)            119.8294         estimate D2E/DX2                !
 ! A121  A(3,33,36)            120.6252         estimate D2E/DX2                !
 ! A122  A(10,33,36)           119.5436         estimate D2E/DX2                !
 ! A123  A(32,34,68)           109.4825         estimate D2E/DX2                !
 ! A124  A(32,34,69)           109.4768         estimate D2E/DX2                !
 ! A125  A(32,34,70)           109.4853         estimate D2E/DX2                !
 ! A126  A(68,34,69)           109.5216         estimate D2E/DX2                !
 ! A127  A(68,34,70)           109.4222         estimate D2E/DX2                !
 ! A128  A(69,34,70)           109.4389         estimate D2E/DX2                !
 ! A129  A(6,35,11)            120.1252         estimate D2E/DX2                !
 ! A130  A(6,35,37)            119.8324         estimate D2E/DX2                !
 ! A131  A(11,35,37)           120.0423         estimate D2E/DX2                !
 ! A132  A(33,36,38)           118.7577         estimate D2E/DX2                !
 ! A133  A(33,36,39)           120.3568         estimate D2E/DX2                !
 ! A134  A(38,36,39)           120.8844         estimate D2E/DX2                !
 ! A135  A(35,37,71)           109.3942         estimate D2E/DX2                !
 ! A136  A(35,37,72)           109.5292         estimate D2E/DX2                !
 ! A137  A(35,37,73)           109.5055         estimate D2E/DX2                !
 ! A138  A(71,37,72)           109.4989         estimate D2E/DX2                !
 ! A139  A(71,37,73)           109.4509         estimate D2E/DX2                !
 ! A140  A(72,37,73)           109.4486         estimate D2E/DX2                !
 ! A141  A(36,38,40)           120.5969         estimate D2E/DX2                !
 ! A142  A(36,38,74)           119.7221         estimate D2E/DX2                !
 ! A143  A(40,38,74)           119.6808         estimate D2E/DX2                !
 ! A144  A(36,39,41)           120.328          estimate D2E/DX2                !
 ! A145  A(36,39,75)           119.9048         estimate D2E/DX2                !
 ! A146  A(41,39,75)           119.7667         estimate D2E/DX2                !
 ! A147  A(38,40,42)           119.5314         estimate D2E/DX2                !
 ! A148  A(38,40,76)           120.1464         estimate D2E/DX2                !
 ! A149  A(42,40,76)           120.3222         estimate D2E/DX2                !
 ! A150  A(39,41,42)           119.5078         estimate D2E/DX2                !
 ! A151  A(39,41,77)           120.295          estimate D2E/DX2                !
 ! A152  A(42,41,77)           120.1972         estimate D2E/DX2                !
 ! A153  A(40,42,41)           119.1417         estimate D2E/DX2                !
 ! A154  A(40,42,78)           120.3701         estimate D2E/DX2                !
 ! A155  A(41,42,78)           120.4881         estimate D2E/DX2                !
 ! A156  A(1,53,25)            141.8409         estimate D2E/DX2                !
 ! D1    D(21,1,15,13)          28.7823         estimate D2E/DX2                !
 ! D2    D(21,1,15,19)         147.0893         estimate D2E/DX2                !
 ! D3    D(21,1,15,44)         -85.6994         estimate D2E/DX2                !
 ! D4    D(53,1,15,13)         -33.9062         estimate D2E/DX2                !
 ! D5    D(53,1,15,19)          84.4008         estimate D2E/DX2                !
 ! D6    D(53,1,15,44)        -148.3879         estimate D2E/DX2                !
 ! D7    D(15,1,21,13)         -28.4707         estimate D2E/DX2                !
 ! D8    D(15,1,21,49)        -151.1784         estimate D2E/DX2                !
 ! D9    D(15,1,21,50)          84.853          estimate D2E/DX2                !
 ! D10   D(53,1,21,13)          97.7851         estimate D2E/DX2                !
 ! D11   D(53,1,21,49)         -24.9225         estimate D2E/DX2                !
 ! D12   D(53,1,21,50)        -148.8911         estimate D2E/DX2                !
 ! D13   D(15,1,53,25)         -72.2158         estimate D2E/DX2                !
 ! D14   D(21,1,53,25)        -139.8011         estimate D2E/DX2                !
 ! D15   D(32,2,13,12)         179.8872         estimate D2E/DX2                !
 ! D16   D(32,2,13,15)          51.5169         estimate D2E/DX2                !
 ! D17   D(32,2,13,21)         -49.5696         estimate D2E/DX2                !
 ! D18   D(13,2,32,9)           93.0255         estimate D2E/DX2                !
 ! D19   D(13,2,32,34)         -87.035          estimate D2E/DX2                !
 ! D20   D(33,3,16,12)         170.546          estimate D2E/DX2                !
 ! D21   D(33,3,16,17)         -58.4844         estimate D2E/DX2                !
 ! D22   D(33,3,16,45)          57.5833         estimate D2E/DX2                !
 ! D23   D(16,3,33,10)         -19.348          estimate D2E/DX2                !
 ! D24   D(16,3,33,36)         161.1467         estimate D2E/DX2                !
 ! D25   D(63,4,17,16)         178.7439         estimate D2E/DX2                !
 ! D26   D(63,4,17,20)          59.9226         estimate D2E/DX2                !
 ! D27   D(63,4,17,23)         -58.128          estimate D2E/DX2                !
 ! D28   D(64,5,18,14)          60.7916         estimate D2E/DX2                !
 ! D29   D(64,5,18,19)         -60.974          estimate D2E/DX2                !
 ! D30   D(64,5,18,46)        -178.114          estimate D2E/DX2                !
 ! D31   D(35,6,26,22)          62.0189         estimate D2E/DX2                !
 ! D32   D(35,6,26,24)         178.4332         estimate D2E/DX2                !
 ! D33   D(35,6,26,56)         -59.8594         estimate D2E/DX2                !
 ! D34   D(26,6,35,11)          31.5684         estimate D2E/DX2                !
 ! D35   D(26,6,35,37)        -148.3526         estimate D2E/DX2                !
 ! D36   D(14,12,13,2)        -166.2307         estimate D2E/DX2                !
 ! D37   D(14,12,13,15)        -31.982          estimate D2E/DX2                !
 ! D38   D(14,12,13,21)         60.6581         estimate D2E/DX2                !
 ! D39   D(16,12,13,2)          71.9588         estimate D2E/DX2                !
 ! D40   D(16,12,13,15)       -153.7924         estimate D2E/DX2                !
 ! D41   D(16,12,13,21)        -61.1523         estimate D2E/DX2                !
 ! D42   D(43,12,13,2)         -47.5667         estimate D2E/DX2                !
 ! D43   D(43,12,13,15)         86.682          estimate D2E/DX2                !
 ! D44   D(43,12,13,21)        179.3221         estimate D2E/DX2                !
 ! D45   D(13,12,14,18)         65.4347         estimate D2E/DX2                !
 ! D46   D(13,12,14,22)       -175.273          estimate D2E/DX2                !
 ! D47   D(13,12,14,25)        -54.1433         estimate D2E/DX2                !
 ! D48   D(16,12,14,18)        177.9855         estimate D2E/DX2                !
 ! D49   D(16,12,14,22)        -62.7222         estimate D2E/DX2                !
 ! D50   D(16,12,14,25)         58.4075         estimate D2E/DX2                !
 ! D51   D(43,12,14,18)        -55.4718         estimate D2E/DX2                !
 ! D52   D(43,12,14,22)         63.8205         estimate D2E/DX2                !
 ! D53   D(43,12,14,25)       -175.0498         estimate D2E/DX2                !
 ! D54   D(13,12,16,3)         -43.5438         estimate D2E/DX2                !
 ! D55   D(13,12,16,17)       -164.8245         estimate D2E/DX2                !
 ! D56   D(13,12,16,45)         73.9265         estimate D2E/DX2                !
 ! D57   D(14,12,16,3)        -156.8311         estimate D2E/DX2                !
 ! D58   D(14,12,16,17)         81.8881         estimate D2E/DX2                !
 ! D59   D(14,12,16,45)        -39.3609         estimate D2E/DX2                !
 ! D60   D(43,12,16,3)          77.3179         estimate D2E/DX2                !
 ! D61   D(43,12,16,17)        -43.9628         estimate D2E/DX2                !
 ! D62   D(43,12,16,45)       -165.2118         estimate D2E/DX2                !
 ! D63   D(2,13,15,1)         -150.4878         estimate D2E/DX2                !
 ! D64   D(2,13,15,19)          88.8698         estimate D2E/DX2                !
 ! D65   D(2,13,15,44)         -36.2122         estimate D2E/DX2                !
 ! D66   D(12,13,15,1)          86.7129         estimate D2E/DX2                !
 ! D67   D(12,13,15,19)        -33.9294         estimate D2E/DX2                !
 ! D68   D(12,13,15,44)       -159.0115         estimate D2E/DX2                !
 ! D69   D(21,13,15,1)         -28.8489         estimate D2E/DX2                !
 ! D70   D(21,13,15,19)       -149.4912         estimate D2E/DX2                !
 ! D71   D(21,13,15,44)         85.4267         estimate D2E/DX2                !
 ! D72   D(2,13,21,1)          152.6864         estimate D2E/DX2                !
 ! D73   D(2,13,21,49)         -82.6379         estimate D2E/DX2                !
 ! D74   D(2,13,21,50)          41.2638         estimate D2E/DX2                !
 ! D75   D(12,13,21,1)         -83.8456         estimate D2E/DX2                !
 ! D76   D(12,13,21,49)         40.83           estimate D2E/DX2                !
 ! D77   D(12,13,21,50)        164.7318         estimate D2E/DX2                !
 ! D78   D(15,13,21,1)          28.6865         estimate D2E/DX2                !
 ! D79   D(15,13,21,49)        153.3622         estimate D2E/DX2                !
 ! D80   D(15,13,21,50)        -82.7361         estimate D2E/DX2                !
 ! D81   D(12,14,18,5)        -154.7092         estimate D2E/DX2                !
 ! D82   D(12,14,18,19)        -33.3625         estimate D2E/DX2                !
 ! D83   D(12,14,18,46)         85.6552         estimate D2E/DX2                !
 ! D84   D(22,14,18,5)          78.1394         estimate D2E/DX2                !
 ! D85   D(22,14,18,19)       -160.5138         estimate D2E/DX2                !
 ! D86   D(22,14,18,46)        -41.4962         estimate D2E/DX2                !
 ! D87   D(25,14,18,5)         -40.7037         estimate D2E/DX2                !
 ! D88   D(25,14,18,19)         80.643          estimate D2E/DX2                !
 ! D89   D(25,14,18,46)       -160.3393         estimate D2E/DX2                !
 ! D90   D(12,14,22,7)         129.6821         estimate D2E/DX2                !
 ! D91   D(12,14,22,26)        -50.5743         estimate D2E/DX2                !
 ! D92   D(18,14,22,7)        -107.7814         estimate D2E/DX2                !
 ! D93   D(18,14,22,26)         71.9622         estimate D2E/DX2                !
 ! D94   D(25,14,22,7)          12.3154         estimate D2E/DX2                !
 ! D95   D(25,14,22,26)       -167.941          estimate D2E/DX2                !
 ! D96   D(12,14,25,53)         57.712          estimate D2E/DX2                !
 ! D97   D(12,14,25,54)        177.6446         estimate D2E/DX2                !
 ! D98   D(12,14,25,55)        -62.4098         estimate D2E/DX2                !
 ! D99   D(18,14,25,53)        -60.83           estimate D2E/DX2                !
 ! D100  D(18,14,25,54)         59.1026         estimate D2E/DX2                !
 ! D101  D(18,14,25,55)        179.0482         estimate D2E/DX2                !
 ! D102  D(22,14,25,53)       -176.132          estimate D2E/DX2                !
 ! D103  D(22,14,25,54)        -56.1994         estimate D2E/DX2                !
 ! D104  D(22,14,25,55)         63.7462         estimate D2E/DX2                !
 ! D105  D(1,15,19,18)         -36.8261         estimate D2E/DX2                !
 ! D106  D(1,15,19,47)        -156.8218         estimate D2E/DX2                !
 ! D107  D(1,15,19,48)          82.7817         estimate D2E/DX2                !
 ! D108  D(13,15,19,18)         68.3157         estimate D2E/DX2                !
 ! D109  D(13,15,19,47)        -51.68           estimate D2E/DX2                !
 ! D110  D(13,15,19,48)       -172.0765         estimate D2E/DX2                !
 ! D111  D(44,15,19,18)       -165.2103         estimate D2E/DX2                !
 ! D112  D(44,15,19,47)         74.794          estimate D2E/DX2                !
 ! D113  D(44,15,19,48)        -45.6024         estimate D2E/DX2                !
 ! D114  D(3,16,17,4)           74.5564         estimate D2E/DX2                !
 ! D115  D(3,16,17,20)        -165.1121         estimate D2E/DX2                !
 ! D116  D(3,16,17,23)         -42.736          estimate D2E/DX2                !
 ! D117  D(12,16,17,4)        -162.8691         estimate D2E/DX2                !
 ! D118  D(12,16,17,20)        -42.5376         estimate D2E/DX2                !
 ! D119  D(12,16,17,23)         79.8385         estimate D2E/DX2                !
 ! D120  D(45,16,17,4)         -43.508          estimate D2E/DX2                !
 ! D121  D(45,16,17,20)         76.8235         estimate D2E/DX2                !
 ! D122  D(45,16,17,23)       -160.8005         estimate D2E/DX2                !
 ! D123  D(4,17,20,24)        -175.0873         estimate D2E/DX2                !
 ! D124  D(4,17,20,29)         -55.2636         estimate D2E/DX2                !
 ! D125  D(4,17,20,30)          64.9265         estimate D2E/DX2                !
 ! D126  D(16,17,20,24)         67.7743         estimate D2E/DX2                !
 ! D127  D(16,17,20,29)       -172.402          estimate D2E/DX2                !
 ! D128  D(16,17,20,30)        -52.2119         estimate D2E/DX2                !
 ! D129  D(23,17,20,24)        -58.4859         estimate D2E/DX2                !
 ! D130  D(23,17,20,29)         61.3378         estimate D2E/DX2                !
 ! D131  D(23,17,20,30)       -178.4722         estimate D2E/DX2                !
 ! D132  D(4,17,23,27)         175.0857         estimate D2E/DX2                !
 ! D133  D(4,17,23,51)          55.9941         estimate D2E/DX2                !
 ! D134  D(4,17,23,52)         -63.4144         estimate D2E/DX2                !
 ! D135  D(16,17,23,27)        -67.5327         estimate D2E/DX2                !
 ! D136  D(16,17,23,51)        173.3757         estimate D2E/DX2                !
 ! D137  D(16,17,23,52)         53.9672         estimate D2E/DX2                !
 ! D138  D(20,17,23,27)         55.1434         estimate D2E/DX2                !
 ! D139  D(20,17,23,51)        -63.9482         estimate D2E/DX2                !
 ! D140  D(20,17,23,52)        176.6433         estimate D2E/DX2                !
 ! D141  D(5,18,19,15)          86.9025         estimate D2E/DX2                !
 ! D142  D(5,18,19,47)        -157.2253         estimate D2E/DX2                !
 ! D143  D(5,18,19,48)         -36.5441         estimate D2E/DX2                !
 ! D144  D(14,18,19,15)        -30.6312         estimate D2E/DX2                !
 ! D145  D(14,18,19,47)         85.2411         estimate D2E/DX2                !
 ! D146  D(14,18,19,48)       -154.0778         estimate D2E/DX2                !
 ! D147  D(46,18,19,15)       -153.3946         estimate D2E/DX2                !
 ! D148  D(46,18,19,47)        -37.5223         estimate D2E/DX2                !
 ! D149  D(46,18,19,48)         83.1588         estimate D2E/DX2                !
 ! D150  D(17,20,24,26)       -135.8347         estimate D2E/DX2                !
 ! D151  D(17,20,24,28)         40.766          estimate D2E/DX2                !
 ! D152  D(29,20,24,26)        102.826          estimate D2E/DX2                !
 ! D153  D(29,20,24,28)        -80.5733         estimate D2E/DX2                !
 ! D154  D(30,20,24,26)        -17.2282         estimate D2E/DX2                !
 ! D155  D(30,20,24,28)        159.3724         estimate D2E/DX2                !
 ! D156  D(17,20,29,57)       -179.8248         estimate D2E/DX2                !
 ! D157  D(17,20,29,58)        -59.7803         estimate D2E/DX2                !
 ! D158  D(17,20,29,59)         60.3176         estimate D2E/DX2                !
 ! D159  D(24,20,29,57)        -60.933          estimate D2E/DX2                !
 ! D160  D(24,20,29,58)         59.1114         estimate D2E/DX2                !
 ! D161  D(24,20,29,59)        179.2093         estimate D2E/DX2                !
 ! D162  D(30,20,29,57)         60.2101         estimate D2E/DX2                !
 ! D163  D(30,20,29,58)       -179.7454         estimate D2E/DX2                !
 ! D164  D(30,20,29,59)        -59.6475         estimate D2E/DX2                !
 ! D165  D(17,20,30,60)        178.6123         estimate D2E/DX2                !
 ! D166  D(17,20,30,61)        -61.4052         estimate D2E/DX2                !
 ! D167  D(17,20,30,62)         58.6078         estimate D2E/DX2                !
 ! D168  D(24,20,30,60)         60.5992         estimate D2E/DX2                !
 ! D169  D(24,20,30,61)       -179.4183         estimate D2E/DX2                !
 ! D170  D(24,20,30,62)        -59.4053         estimate D2E/DX2                !
 ! D171  D(29,20,30,60)        -59.5832         estimate D2E/DX2                !
 ! D172  D(29,20,30,61)         60.3993         estimate D2E/DX2                !
 ! D173  D(29,20,30,62)       -179.5877         estimate D2E/DX2                !
 ! D174  D(7,22,26,6)           14.042          estimate D2E/DX2                !
 ! D175  D(7,22,26,24)        -109.1917         estimate D2E/DX2                !
 ! D176  D(7,22,26,56)         135.2082         estimate D2E/DX2                !
 ! D177  D(14,22,26,6)        -165.7008         estimate D2E/DX2                !
 ! D178  D(14,22,26,24)         71.0655         estimate D2E/DX2                !
 ! D179  D(14,22,26,56)        -44.5346         estimate D2E/DX2                !
 ! D180  D(17,23,27,8)         152.9379         estimate D2E/DX2                !
 ! D181  D(17,23,27,28)        -27.387          estimate D2E/DX2                !
 ! D182  D(51,23,27,8)         -87.7692         estimate D2E/DX2                !
 ! D183  D(51,23,27,28)         91.906          estimate D2E/DX2                !
 ! D184  D(52,23,27,8)          31.6174         estimate D2E/DX2                !
 ! D185  D(52,23,27,28)       -148.7075         estimate D2E/DX2                !
 ! D186  D(20,24,26,6)         -81.7744         estimate D2E/DX2                !
 ! D187  D(20,24,26,22)         40.8568         estimate D2E/DX2                !
 ! D188  D(20,24,26,56)        156.8892         estimate D2E/DX2                !
 ! D189  D(28,24,26,6)         101.3854         estimate D2E/DX2                !
 ! D190  D(28,24,26,22)       -135.9835         estimate D2E/DX2                !
 ! D191  D(28,24,26,56)        -19.951          estimate D2E/DX2                !
 ! D192  D(20,24,28,27)        -12.7686         estimate D2E/DX2                !
 ! D193  D(20,24,28,31)        168.6774         estimate D2E/DX2                !
 ! D194  D(26,24,28,27)        163.7978         estimate D2E/DX2                !
 ! D195  D(26,24,28,31)        -14.7562         estimate D2E/DX2                !
 ! D196  D(14,25,53,1)          51.0683         estimate D2E/DX2                !
 ! D197  D(54,25,53,1)         -68.765          estimate D2E/DX2                !
 ! D198  D(55,25,53,1)         171.1479         estimate D2E/DX2                !
 ! D199  D(8,27,28,24)        -174.6852         estimate D2E/DX2                !
 ! D200  D(8,27,28,31)           3.8672         estimate D2E/DX2                !
 ! D201  D(23,27,28,24)          5.6408         estimate D2E/DX2                !
 ! D202  D(23,27,28,31)       -175.8069         estimate D2E/DX2                !
 ! D203  D(24,28,31,65)         89.1746         estimate D2E/DX2                !
 ! D204  D(24,28,31,66)       -150.799          estimate D2E/DX2                !
 ! D205  D(24,28,31,67)        -30.92           estimate D2E/DX2                !
 ! D206  D(27,28,31,65)        -89.3393         estimate D2E/DX2                !
 ! D207  D(27,28,31,66)         30.6872         estimate D2E/DX2                !
 ! D208  D(27,28,31,67)        150.5661         estimate D2E/DX2                !
 ! D209  D(2,32,34,68)         151.0375         estimate D2E/DX2                !
 ! D210  D(2,32,34,69)         -88.8905         estimate D2E/DX2                !
 ! D211  D(2,32,34,70)          31.082          estimate D2E/DX2                !
 ! D212  D(9,32,34,68)         -29.0231         estimate D2E/DX2                !
 ! D213  D(9,32,34,69)          91.0489         estimate D2E/DX2                !
 ! D214  D(9,32,34,70)        -148.9787         estimate D2E/DX2                !
 ! D215  D(3,33,36,38)        -178.7763         estimate D2E/DX2                !
 ! D216  D(3,33,36,39)           1.6058         estimate D2E/DX2                !
 ! D217  D(10,33,36,38)          1.7169         estimate D2E/DX2                !
 ! D218  D(10,33,36,39)       -177.901          estimate D2E/DX2                !
 ! D219  D(6,35,37,71)          29.4408         estimate D2E/DX2                !
 ! D220  D(6,35,37,72)         -90.5814         estimate D2E/DX2                !
 ! D221  D(6,35,37,73)         149.3897         estimate D2E/DX2                !
 ! D222  D(11,35,37,71)       -150.4803         estimate D2E/DX2                !
 ! D223  D(11,35,37,72)         89.4975         estimate D2E/DX2                !
 ! D224  D(11,35,37,73)        -30.5314         estimate D2E/DX2                !
 ! D225  D(33,36,38,40)       -178.5718         estimate D2E/DX2                !
 ! D226  D(33,36,38,74)          1.2833         estimate D2E/DX2                !
 ! D227  D(39,36,38,40)          1.044          estimate D2E/DX2                !
 ! D228  D(39,36,38,74)       -179.1009         estimate D2E/DX2                !
 ! D229  D(33,36,39,41)        178.5172         estimate D2E/DX2                !
 ! D230  D(33,36,39,75)         -1.2481         estimate D2E/DX2                !
 ! D231  D(38,36,39,41)         -1.0925         estimate D2E/DX2                !
 ! D232  D(38,36,39,75)        179.1423         estimate D2E/DX2                !
 ! D233  D(36,38,40,42)         -0.2697         estimate D2E/DX2                !
 ! D234  D(36,38,40,76)        179.722          estimate D2E/DX2                !
 ! D235  D(74,38,40,42)        179.8752         estimate D2E/DX2                !
 ! D236  D(74,38,40,76)         -0.1331         estimate D2E/DX2                !
 ! D237  D(36,39,41,42)          0.3691         estimate D2E/DX2                !
 ! D238  D(36,39,41,77)       -179.6373         estimate D2E/DX2                !
 ! D239  D(75,39,41,42)       -179.8653         estimate D2E/DX2                !
 ! D240  D(75,39,41,77)          0.1283         estimate D2E/DX2                !
 ! D241  D(38,40,42,41)         -0.4347         estimate D2E/DX2                !
 ! D242  D(38,40,42,78)        179.6123         estimate D2E/DX2                !
 ! D243  D(76,40,42,41)        179.5736         estimate D2E/DX2                !
 ! D244  D(76,40,42,78)         -0.3794         estimate D2E/DX2                !
 ! D245  D(39,41,42,40)          0.3847         estimate D2E/DX2                !
 ! D246  D(39,41,42,78)       -179.6624         estimate D2E/DX2                !
 ! D247  D(77,41,42,40)       -179.6088         estimate D2E/DX2                !
 ! D248  D(77,41,42,78)          0.3441         estimate D2E/DX2                !
 --------------------------------------------------------------------------------
 Trust Radius=3.00D-01 FncErr=1.00D-07 GrdErr=1.00D-07 EigMax=2.50D+02 EigMin=1.00D-04
 Number of steps in this run=    468 maximum allowed number of steps=    468.
 GradGradGradGradGradGradGradGradGradGradGradGradGradGradGradGradGradGrad

 Stoichiometry    C31H36O11
 Framework group  C1[X(C31H36O11)]
 Deg. of freedom   228
 Full point group                 C1      NOp   1
 Largest Abelian subgroup         C1      NOp   1
 Largest concise Abelian subgroup C1      NOp   1
                         Standard orientation:                         
 ---------------------------------------------------------------------
 Center     Atomic      Atomic             Coordinates (Angstroms)
 Number     Number       Type             X           Y           Z
 ---------------------------------------------------------------------
      1          8           0        0.786456    3.210834   -1.514105
      2          8           0       -1.431187    2.004755    0.856000
      3          8           0       -1.933909    0.076973   -0.206602
      4          8           0       -1.194527   -2.422330   -1.465124
      5          8           0        3.528720    2.647540   -0.769574
      6          8           0        4.069892   -1.829298    0.534549
      7          8           0        3.290944   -0.523228   -1.788680
      8          8           0       -0.905196   -1.789210    3.277055
      9          8           0       -3.242581    3.251394    0.096683
     10          8           0       -2.490314   -1.167185   -2.093847
     11          8           0        5.370233    0.095426    0.734871
     12          6           0        0.391337    0.792827    0.105662
     13          6           0       -0.348982    2.164290   -0.058756
     14          6           0        1.796148    1.021445   -0.592794
     15          6           0        0.552740    3.331726   -0.049841
     16          6           0       -0.598651   -0.238270   -0.614705
     17          6           0       -0.459621   -1.807459   -0.404024
     18          6           0        2.632213    2.090945    0.196219
     19          6           0        1.733398    3.182547    0.834907
     20          6           0        0.997957   -2.184886   -0.452592
     21          6           0       -0.589951    2.630492   -1.452768
     22          6           0        2.742861   -0.188875   -0.705793
     23          6           0       -1.073234   -2.357716    0.927758
     24          6           0        1.675016   -1.583918    0.785281
     25          6           0        1.405909    1.519378   -1.997154
     26          6           0        2.961301   -0.931198    0.583065
     27          6           0       -0.322059   -1.890089    2.165120
     28          6           0        1.141291   -1.559876    2.016669
     29          6           0        1.189008   -3.713675   -0.442912
     30          6           0        1.611231   -1.611460   -1.742879
     31          6           0        1.994087   -1.172166    3.239691
     32          6           0       -2.239748    3.177458    0.853585
     33          6           0       -2.858965   -0.674921   -0.994625
     34          6           0       -1.879488    4.350483    1.782556
     35          6           0        5.264010   -1.080745    0.297214
     36          6           0       -4.307171   -0.880676   -0.519129
     37          6           0        6.420516   -1.715087   -0.496835
     38          6           0       -5.147331   -1.622877   -1.285674
     39          6           0       -4.735263   -0.320082    0.645542
     40          6           0       -6.481224   -1.810039   -0.904747
     41          6           0       -6.065336   -0.482341    1.063319
     42          6           0       -6.947254   -1.231131    0.278272
     43          1           0        0.542100    0.523432    1.130201
     44          1           0        0.036291    4.235904    0.196783
     45          1           0       -0.464571   -0.036066   -1.657180
     46          1           0        3.183964    1.659345    1.003257
     47          1           0        1.352920    2.888866    1.790983
     48          1           0        2.315612    4.073449    0.946545
     49          1           0       -0.894649    1.900019   -2.173677
     50          1           0       -1.313158    3.418003   -1.486510
     51          1           0       -1.022436   -3.425912    0.900160
     52          1           0       -2.092767   -2.042520    0.995233
     53          1           0        0.804084    2.399177   -1.909410
     54          1           0        2.292729    1.747375   -2.551048
     55          1           0        0.854022    0.757544   -2.505010
     56          1           0        3.127151   -0.233338    1.376281
     57          1           0        2.234783   -3.941678   -0.475132
     58          1           0        0.761902   -4.120975    0.448020
     59          1           0        0.706577   -4.141221   -1.297802
     60          1           0        2.653100   -1.851191   -1.779415
     61          1           0        1.117884   -2.036160   -2.591810
     62          1           0        1.489121   -0.548930   -1.754117
     63          1           0       -1.123633   -3.376620   -1.391709
     64          1           0        3.022327    3.058099   -1.474727
     65          1           0        1.949719   -0.114030    3.386410
     66          1           0        1.615474   -1.669336    4.108738
     67          1           0        3.009186   -1.467629    3.074682
     68          1           0       -2.209034    5.267313    1.343204
     69          1           0       -2.357820    4.215647    2.728664
     70          1           0       -0.819239    4.383314    1.921124
     71          1           0        6.026071   -2.424367   -1.193269
     72          1           0        7.087719   -2.209426    0.176787
     73          1           0        6.950630   -0.951784   -1.027289
     74          1           0       -4.787367   -2.066816   -2.190202
     75          1           0       -4.056898    0.249773    1.243646
     76          1           0       -7.138280   -2.392687   -1.516605
     77          1           0       -6.403214   -0.036032    1.977176
     78          1           0       -7.967003   -1.360525    0.579417
 ---------------------------------------------------------------------
 Rotational constants (GHZ):           0.1437737           0.0733291           0.0605371
 Standard basis: 3-21G* (6D, 7F)
 There are   450 symmetry adapted cartesian basis functions of A   symmetry.
 There are   450 symmetry adapted basis functions of A   symmetry.
   450 basis functions,   738 primitive gaussians,   450 cartesian basis functions
   155 alpha electrons      155 beta electrons
       nuclear repulsion energy      5922.4695089942 Hartrees.
 NAtoms=   78 NActive=   78 NUniq=   78 SFac= 1.00D+00 NAtFMM=   60 NAOKFM=T Big=T
 Integral buffers will be    131072 words long.
 Raffenetti 1 integral format.
 Two-electron integral symmetry is turned on.
 One-electron integrals computed using PRISM.
 NBasis=   450 RedAO= T EigKep=  1.48D-03  NBF=   450
 NBsUse=   450 1.00D-06 EigRej= -1.00D+00 NBFU=   450
 Initial guess from the read-write file.
 Requested convergence on RMS density matrix=1.00D-08 within 128 cycles.
 Requested convergence on MAX density matrix=1.00D-06.
 Requested convergence on             energy=1.00D-06.
 No special actions if energy rises.
 SCF Done:  E(RHF) =  -2006.35947377     A.U. after    1 cycles
            NFock=  1  Conv=0.28D-09     -V/T= 2.0006

 **********************************************************************

            Population analysis using the SCF Density.

 **********************************************************************

 Orbital symmetries:
       Occupied  (A) (A) (A) (A) (A) (A) (A) (A) (A) (A) (A) (A)
                 (A) (A) (A) (A) (A) (A) (A) (A) (A) (A) (A) (A)
                 (A) (A) (A) (A) (A) (A) (A) (A) (A) (A) (A) (A)
                 (A) (A) (A) (A) (A) (A) (A) (A) (A) (A) (A) (A)
                 (A) (A) (A) (A) (A) (A) (A) (A) (A) (A) (A) (A)
                 (A) (A) (A) (A) (A) (A) (A) (A) (A) (A) (A) (A)
                 (A) (A) (A) (A) (A) (A) (A) (A) (A) (A) (A) (A)
                 (A) (A) (A) (A) (A) (A) (A) (A) (A) (A) (A) (A)
                 (A) (A) (A) (A) (A) (A) (A) (A) (A) (A) (A) (A)
                 (A) (A) (A) (A) (A) (A) (A) (A) (A) (A) (A) (A)
                 (A) (A) (A) (A) (A) (A) (A) (A) (A) (A) (A) (A)
                 (A) (A) (A) (A) (A) (A) (A) (A) (A) (A) (A) (A)
                 (A) (A) (A) (A) (A) (A) (A) (A) (A) (A) (A)
       Virtual   (A) (A) (A) (A) (A) (A) (A) (A) (A) (A) (A) (A)
                 (A) (A) (A) (A) (A) (A) (A) (A) (A) (A) (A) (A)
                 (A) (A) (A) (A) (A) (A) (A) (A) (A) (A) (A) (A)
                 (A) (A) (A) (A) (A) (A) (A) (A) (A) (A) (A) (A)
                 (A) (A) (A) (A) (A) (A) (A) (A) (A) (A) (A) (A)
                 (A) (A) (A) (A) (A) (A) (A) (A) (A) (A) (A) (A)
                 (A) (A) (A) (A) (A) (A) (A) (A) (A) (A) (A) (A)
                 (A) (A) (A) (A) (A) (A) (A) (A) (A) (A) (A) (A)
                 (A) (A) (A) (A) (A) (A) (A) (A) (A) (A) (A) (A)
                 (A) (A) (A) (A) (A) (A) (A) (A) (A) (A) (A) (A)
                 (A) (A) (A) (A) (A) (A) (A) (A) (A) (A) (A) (A)
                 (A) (A) (A) (A) (A) (A) (A) (A) (A) (A) (A) (A)
                 (A) (A) (A) (A) (A) (A) (A) (A) (A) (A) (A) (A)
                 (A) (A) (A) (A) (A) (A) (A) (A) (A) (A) (A) (A)
                 (A) (A) (A) (A) (A) (A) (A) (A) (A) (A) (A) (A)
                 (A) (A) (A) (A) (A) (A) (A) (A) (A) (A) (A) (A)
                 (A) (A) (A) (A) (A) (A) (A) (A) (A) (A) (A) (A)
                 (A) (A) (A) (A) (A) (A) (A) (A) (A) (A) (A) (A)
                 (A) (A) (A) (A) (A) (A) (A) (A) (A) (A) (A) (A)
                 (A) (A) (A) (A) (A) (A) (A) (A) (A) (A) (A) (A)
                 (A) (A) (A) (A) (A) (A) (A) (A) (A) (A) (A) (A)
                 (A) (A) (A) (A) (A) (A) (A) (A) (A) (A) (A) (A)
                 (A) (A) (A) (A) (A) (A) (A) (A) (A) (A) (A) (A)
                 (A) (A) (A) (A) (A) (A) (A) (A) (A) (A) (A) (A)
                 (A) (A) (A) (A) (A) (A) (A)
 The electronic state is 1-A.
 Alpha  occ. eigenvalues --  -20.53141 -20.52694 -20.51701 -20.49583 -20.49324
 Alpha  occ. eigenvalues --  -20.46297 -20.45618 -20.45035 -20.44315 -20.44207
 Alpha  occ. eigenvalues --  -20.43891 -11.37125 -11.35446 -11.32332 -11.29233
 Alpha  occ. eigenvalues --  -11.29050 -11.28943 -11.28695 -11.28019 -11.25493
 Alpha  occ. eigenvalues --  -11.25430 -11.25244 -11.24947 -11.22174 -11.21652
 Alpha  occ. eigenvalues --  -11.21446 -11.20947 -11.20683 -11.19882 -11.19781
 Alpha  occ. eigenvalues --  -11.19323 -11.18940 -11.18787 -11.18475 -11.18414
 Alpha  occ. eigenvalues --  -11.18399 -11.18352 -11.18119 -11.17508 -11.16142
 Alpha  occ. eigenvalues --  -11.10592 -11.05091  -1.56765  -1.46947  -1.45476
 Alpha  occ. eigenvalues --   -1.44311  -1.40259  -1.38310  -1.37351  -1.37035
 Alpha  occ. eigenvalues --   -1.35882  -1.35354  -1.33712  -1.19148  -1.17499
 Alpha  occ. eigenvalues --   -1.16947  -1.12032  -1.09927  -1.08802  -1.06342
 Alpha  occ. eigenvalues --   -1.05266  -1.04269  -1.02955  -1.02021  -1.01219
 Alpha  occ. eigenvalues --   -1.00199  -0.96644  -0.96306  -0.95074  -0.93373
 Alpha  occ. eigenvalues --   -0.91989  -0.89264  -0.86695  -0.84505  -0.84207
 Alpha  occ. eigenvalues --   -0.83883  -0.82161  -0.80242  -0.79768  -0.77206
 Alpha  occ. eigenvalues --   -0.76662  -0.76483  -0.74672  -0.73429  -0.73385
 Alpha  occ. eigenvalues --   -0.72633  -0.72020  -0.70313  -0.69712  -0.69308
 Alpha  occ. eigenvalues --   -0.68971  -0.67724  -0.67675  -0.67306  -0.66365
 Alpha  occ. eigenvalues --   -0.66258  -0.65177  -0.64889  -0.64579  -0.63796
 Alpha  occ. eigenvalues --   -0.63717  -0.63137  -0.63024  -0.62325  -0.62109
 Alpha  occ. eigenvalues --   -0.61642  -0.61336  -0.60525  -0.60256  -0.59803
 Alpha  occ. eigenvalues --   -0.59568  -0.59492  -0.59242  -0.58497  -0.58341
 Alpha  occ. eigenvalues --   -0.57924  -0.57635  -0.56936  -0.56717  -0.56156
 Alpha  occ. eigenvalues --   -0.55588  -0.55244  -0.55019  -0.54473  -0.53585
 Alpha  occ. eigenvalues --   -0.52977  -0.52608  -0.51934  -0.51540  -0.50915
 Alpha  occ. eigenvalues --   -0.50751  -0.50224  -0.49872  -0.49399  -0.48965
 Alpha  occ. eigenvalues --   -0.48098  -0.47231  -0.47051  -0.46636  -0.46015
 Alpha  occ. eigenvalues --   -0.45271  -0.45052  -0.44523  -0.44079  -0.43946
 Alpha  occ. eigenvalues --   -0.42843  -0.42204  -0.40340  -0.39711  -0.37977
 Alpha  occ. eigenvalues --   -0.35720  -0.34124  -0.34018  -0.33203  -0.28150
 Alpha virt. eigenvalues --    0.07046   0.10374   0.11712   0.13153   0.14204
 Alpha virt. eigenvalues --    0.15526   0.19293   0.21478   0.21965   0.22742
 Alpha virt. eigenvalues --    0.22813   0.24714   0.25150   0.25505   0.26307
 Alpha virt. eigenvalues --    0.26965   0.27570   0.28130   0.28170   0.29479
 Alpha virt. eigenvalues --    0.29922   0.30143   0.31048   0.31240   0.31591
 Alpha virt. eigenvalues --    0.31950   0.32286   0.32673   0.32854   0.33264
 Alpha virt. eigenvalues --    0.33584   0.34064   0.34467   0.34736   0.35069
 Alpha virt. eigenvalues --    0.35490   0.35806   0.36271   0.36959   0.37303
 Alpha virt. eigenvalues --    0.37434   0.37718   0.37952   0.38166   0.38781
 Alpha virt. eigenvalues --    0.38907   0.39524   0.39667   0.39893   0.41085
 Alpha virt. eigenvalues --    0.41950   0.42384   0.42919   0.43493   0.44357
 Alpha virt. eigenvalues --    0.44535   0.45062   0.45516   0.46099   0.46764
 Alpha virt. eigenvalues --    0.47322   0.47561   0.48707   0.49065   0.49396
 Alpha virt. eigenvalues --    0.49466   0.50191   0.50757   0.50825   0.51185
 Alpha virt. eigenvalues --    0.52471   0.52787   0.52988   0.53462   0.55215
 Alpha virt. eigenvalues --    0.55842   0.57140   0.57383   0.58163   0.59057
 Alpha virt. eigenvalues --    0.60155   0.60552   0.62020   0.63064   0.67316
 Alpha virt. eigenvalues --    0.68836   0.70040   0.70624   0.75039   0.77397
 Alpha virt. eigenvalues --    0.82751   0.88181   0.89251   0.89928   0.90385
 Alpha virt. eigenvalues --    0.90932   0.91160   0.92220   0.92402   0.92865
 Alpha virt. eigenvalues --    0.93512   0.94160   0.94724   0.95116   0.95153
 Alpha virt. eigenvalues --    0.95465   0.95515   0.96234   0.96648   0.97353
 Alpha virt. eigenvalues --    0.97585   0.98010   0.98253   0.99063   0.99156
 Alpha virt. eigenvalues --    1.00592   1.00997   1.01552   1.01920   1.02228
 Alpha virt. eigenvalues --    1.02931   1.03537   1.03802   1.04394   1.04593
 Alpha virt. eigenvalues --    1.05213   1.05458   1.06133   1.06247   1.07059
 Alpha virt. eigenvalues --    1.07625   1.08605   1.08640   1.09131   1.09188
 Alpha virt. eigenvalues --    1.09630   1.10367   1.10815   1.11471   1.11718
 Alpha virt. eigenvalues --    1.12377   1.12846   1.13234   1.14133   1.14565
 Alpha virt. eigenvalues --    1.14919   1.16737   1.17216   1.18183   1.18515
 Alpha virt. eigenvalues --    1.19433   1.20491   1.21454   1.22451   1.23584
 Alpha virt. eigenvalues --    1.24522   1.25735   1.26302   1.27471   1.28262
 Alpha virt. eigenvalues --    1.28891   1.29219   1.30051   1.30731   1.31025
 Alpha virt. eigenvalues --    1.32198   1.32459   1.33329   1.33987   1.34824
 Alpha virt. eigenvalues --    1.35092   1.35607   1.36154   1.36922   1.37080
 Alpha virt. eigenvalues --    1.37395   1.38435   1.38887   1.39303   1.39454
 Alpha virt. eigenvalues --    1.40225   1.41047   1.41885   1.42336   1.43541
 Alpha virt. eigenvalues --    1.44056   1.44826   1.45333   1.45425   1.45858
 Alpha virt. eigenvalues --    1.47095   1.48100   1.48749   1.49319   1.49688
 Alpha virt. eigenvalues --    1.50930   1.51633   1.52741   1.53191   1.54391
 Alpha virt. eigenvalues --    1.54938   1.56363   1.57235   1.57946   1.59315
 Alpha virt. eigenvalues --    1.61491   1.61725   1.62049   1.65421   1.66694
 Alpha virt. eigenvalues --    1.67434   1.70449   1.70854   1.71357   1.74179
 Alpha virt. eigenvalues --    1.74803   1.76941   1.77513   1.79071   1.79237
 Alpha virt. eigenvalues --    1.80079   1.80553   1.82456   1.83738   1.84878
 Alpha virt. eigenvalues --    1.86019   1.88698   1.90128   1.90333   1.91983
 Alpha virt. eigenvalues --    1.92711   1.94279   1.95741   1.96003   1.97388
 Alpha virt. eigenvalues --    1.97520   1.98231   1.99778   2.00601   2.01068
 Alpha virt. eigenvalues --    2.03130   2.03515   2.04855   2.05230   2.06405
 Alpha virt. eigenvalues --    2.07688   2.09127   2.10330   2.11914   2.12771
 Alpha virt. eigenvalues --    2.13972   2.14694   2.16132   2.16908   2.20273
 Alpha virt. eigenvalues --    2.20809   2.22288   2.22591   2.23935   2.24413
 Alpha virt. eigenvalues --    2.26761   2.27837   2.29852   2.31839   2.33768
 Alpha virt. eigenvalues --    2.35536   2.38416   2.38677   2.41559   2.46128
 Alpha virt. eigenvalues --    2.46511   2.48812   2.56991   2.58003   2.59215
 Alpha virt. eigenvalues --    2.70721   2.73688   2.76897   2.78013   2.79865
 Alpha virt. eigenvalues --    2.89474   3.02188   3.14764   3.40214   3.48519
 Alpha virt. eigenvalues --    3.53837   3.57164   3.59585   3.63703   3.69371
 Alpha virt. eigenvalues --    3.73257   3.76490   3.77794   3.83405   3.90045
          Condensed to atoms (all electrons):
 Mulliken charges:
               1
     1  O   -0.595769
     2  O   -0.619274
     3  O   -0.676559
     4  O   -0.643191
     5  O   -0.667623
     6  O   -0.657640
     7  O   -0.582820
     8  O   -0.575991
     9  O   -0.531399
    10  O   -0.521982
    11  O   -0.587723
    12  C   -0.244652
    13  C    0.187367
    14  C   -0.334624
    15  C    0.033281
    16  C    0.140126
    17  C    0.266265
    18  C    0.159910
    19  C   -0.499987
    20  C   -0.303674
    21  C   -0.251649
    22  C    0.547682
    23  C   -0.494493
    24  C    0.065283
    25  C   -0.809482
    26  C   -0.000848
    27  C    0.546235
    28  C   -0.159359
    29  C   -0.529557
    30  C   -0.650497
    31  C   -0.618056
    32  C    0.748707
    33  C    0.882793
    34  C   -0.704076
    35  C    0.811147
    36  C   -0.241999
    37  C   -0.687193
    38  C   -0.198854
    39  C   -0.199112
    40  C   -0.238388
    41  C   -0.235371
    42  C   -0.230337
    43  H    0.287619
    44  H    0.282903
    45  H    0.306275
    46  H    0.275288
    47  H    0.241446
    48  H    0.268910
    49  H    0.326499
    50  H    0.292315
    51  H    0.252864
    52  H    0.290400
    53  H    0.566409
    54  H    0.215268
    55  H    0.182288
    56  H    0.294974
    57  H    0.241748
    58  H    0.203455
    59  H    0.196822
    60  H    0.305147
    61  H    0.221268
    62  H    0.282048
    63  H    0.374896
    64  H    0.409895
    65  H    0.213982
    66  H    0.258645
    67  H    0.241131
    68  H    0.271201
    69  H    0.281895
    70  H    0.226934
    71  H    0.257074
    72  H    0.255416
    73  H    0.278640
    74  H    0.281858
    75  H    0.280511
    76  H    0.245647
    77  H    0.244864
    78  H    0.246850
 Sum of Mulliken charges =   0.00000
 Mulliken charges with hydrogens summed into heavy atoms:
               1
     1  O   -0.029360
     2  O   -0.619274
     3  O   -0.676559
     4  O   -0.268295
     5  O   -0.257728
     6  O   -0.657640
     7  O   -0.582820
     8  O   -0.575991
     9  O   -0.531399
    10  O   -0.521982
    11  O   -0.587723
    12  C    0.042967
    13  C    0.187367
    14  C   -0.334624
    15  C    0.316184
    16  C    0.446400
    17  C    0.266265
    18  C    0.435198
    19  C    0.010369
    20  C   -0.303674
    21  C    0.367165
    22  C    0.547682
    23  C    0.048771
    24  C    0.065283
    25  C   -0.411926
    26  C    0.294126
    27  C    0.546235
    28  C   -0.159359
    29  C    0.112468
    30  C    0.157966
    31  C    0.095702
    32  C    0.748707
    33  C    0.882793
    34  C    0.075953
    35  C    0.811147
    36  C   -0.241999
    37  C    0.103938
    38  C    0.083004
    39  C    0.081399
    40  C    0.007259
    41  C    0.009493
    42  C    0.016513
 Electronic spatial extent (au):  <R**2>=          18719.4126
 Charge=              0.0000 electrons
 Dipole moment (field-independent basis, Debye):
    X=             -1.1418    Y=              1.8905    Z=              3.2525  Tot=              3.9314
 Quadrupole moment (field-independent basis, Debye-Ang):
   XX=           -252.4641   YY=           -219.2359   ZZ=           -264.3533
   XY=            -11.1213   XZ=              2.9135   YZ=             15.7356
 Traceless Quadrupole moment (field-independent basis, Debye-Ang):
   XX=             -7.1130   YY=             26.1152   ZZ=            -19.0022
   XY=            -11.1213   XZ=              2.9135   YZ=             15.7356
 Octapole moment (field-independent basis, Debye-Ang**2):
  XXX=            -58.0754  YYY=             78.3631  ZZZ=            -15.5326  XYY=             -1.1318
  XXY=           -162.1037  XXZ=             21.1322  XZZ=             11.2046  YZZ=             55.7067
  YYZ=             13.5997  XYZ=            -29.1354
 Hexadecapole moment (field-independent basis, Debye-Ang**3):
 XXXX=         -13666.9568 YYYY=          -6075.9581 ZZZZ=          -3061.1827 XXXY=           -206.2053
 XXXZ=           -293.6308 YYYX=            -63.6435 YYYZ=            252.9851 ZZZX=             80.4572
 ZZZY=             93.6164 XXYY=          -3704.3924 XXZZ=          -3001.4948 YYZZ=          -1536.2611
 XXYZ=            177.2047 YYXZ=             -6.9764 ZZXY=            -92.0848
 N-N= 5.922469508994D+03 E-N=-1.654886280711D+04  KE= 2.005181644898D+03
 Calling FoFJK, ICntrl=      2127 FMM=T ISym2X=0 I1Cent= 0 IOpClX= 0 NMat=1 NMatS=1 NMatT=0.
 ***** Axes restored to original set *****
 -------------------------------------------------------------------
 Center     Atomic                   Forces (Hartrees/Bohr)
 Number     Number              X              Y              Z
 -------------------------------------------------------------------
      1        8          -0.139824311    0.476449745    0.156243460
      2        8          -0.012173896    0.089120394    0.010165117
      3        8          -0.054222604   -0.045466114   -0.029076497
      4        8           0.061459090   -0.055004781    0.021024570
      5        8           0.013330028    0.008840986    0.018764714
      6        8           0.045877130    0.015550632   -0.027273049
      7        8           0.104214487    0.135346599    0.079082777
      8        8           0.034578228   -0.007743498   -0.058514266
      9        8           0.076818185   -0.003965679    0.053195261
     10        8          -0.086764378    0.110675549    0.051665664
     11        8          -0.016022065   -0.085196329   -0.018653836
     12        6          -0.000917334   -0.004577319   -0.019247579
     13        6           0.002302178   -0.054172801    0.017435802
     14        6          -0.022190585   -0.012913944   -0.006283068
     15        6           0.036425525    0.058040704    0.068412446
     16        6           0.027027614   -0.012921441    0.011844249
     17        6           0.010177345    0.004748178    0.024875762
     18        6          -0.013746678    0.004149368   -0.006662549
     19        6           0.019135271   -0.011638524   -0.023836265
     20        6           0.009696200   -0.001667157   -0.004583070
     21        6          -0.130331760   -0.005907971   -0.019430890
     22        6           0.091098069    0.059093745   -0.037299074
     23        6           0.014305353    0.034646970   -0.007619618
     24        6          -0.027737127   -0.030415992    0.034316308
     25        6           0.104835911   -0.236424719   -0.063840658
     26        6           0.001374351    0.015287019   -0.001854057
     27        6          -0.020310700    0.006877797    0.061193708
     28        6          -0.000935434   -0.016514637   -0.015697160
     29        6           0.000686296    0.011809928    0.004148221
     30        6          -0.090980278   -0.092925828   -0.002324150
     31        6          -0.021285490   -0.007940489   -0.015599992
     32        6          -0.082353232   -0.003483617   -0.041412699
     33        6          -0.006662952   -0.023025960   -0.082760246
     34        6           0.009378532   -0.025228615   -0.010313203
     35        6           0.013917505    0.069939353    0.018012207
     36        6           0.054577965    0.018463453    0.005064968
     37        6          -0.030569838   -0.006660791    0.010253034
     38        6          -0.029200404   -0.021021942   -0.015747725
     39        6          -0.023092845    0.011427412    0.027230329
     40        6           0.012372161    0.008962299    0.007012516
     41        6           0.006801625   -0.006642133   -0.012298664
     42        6           0.015435925    0.003174644   -0.003532095
     43        1          -0.013090414    0.012354373    0.004235582
     44        1          -0.002577258    0.005026063   -0.013298302
     45        1          -0.010936340   -0.011165290    0.001021356
     46        1           0.013885486   -0.003362482   -0.006870344
     47        1           0.000148851   -0.004974368    0.010355651
     48        1           0.004373365    0.007124149   -0.000898496
     49        1           0.012938768    0.005238852   -0.010817246
     50        1          -0.000114811    0.007282183   -0.000163612
     51        1          -0.002975597   -0.007876203    0.000313124
     52        1          -0.005563886   -0.001214247    0.005549149
     53        1           0.095058407   -0.241693714   -0.111595388
     54        1           0.003106913   -0.006724992   -0.007931032
     55        1           0.017580732   -0.018731396   -0.011573125
     56        1           0.002321296    0.001304221   -0.003783986
     57        1           0.007541704   -0.002403150    0.000222562
     58        1           0.001999675   -0.008557451    0.007668201
     59        1          -0.000326639   -0.005524522   -0.007746900
     60        1          -0.032195317   -0.046384559   -0.009107441
     61        1          -0.017377058   -0.006092444   -0.005455921
     62        1          -0.036353936   -0.048953723   -0.026076208
     63        1           0.003706727   -0.010714394    0.001743260
     64        1          -0.000012319    0.002717571   -0.002532689
     65        1          -0.000100959    0.012390238    0.006242213
     66        1          -0.004518016   -0.001264851    0.006616337
     67        1           0.006440813   -0.002660382    0.001250988
     68        1          -0.006415190    0.003615479   -0.005161321
     69        1          -0.004456819   -0.001305693    0.010157577
     70        1           0.004020196    0.001532119    0.008844246
     71        1          -0.002857898   -0.006894540   -0.003456840
     72        1           0.006538588   -0.004466072    0.007441146
     73        1          -0.000475445    0.008936613    0.000631275
     74        1           0.001416856    0.001228525   -0.000507093
     75        1           0.001589577    0.001424429   -0.000616956
     76        1           0.000326845   -0.000374316   -0.000699035
     77        1           0.000971585    0.000037912   -0.000453076
     78        1          -0.000121544   -0.000018437    0.000371639
 -------------------------------------------------------------------
 Cartesian Forces:  Max     0.476449745 RMS     0.052420826

 GradGradGradGradGradGradGradGradGradGradGradGradGradGradGradGradGradGrad
 Berny optimization.
 FormGI is forming the generalized inverse of G from B-inverse, IUseBI=4.
 Internal  Forces:  Max     0.405196452 RMS     0.051990228
 Search for a local minimum.
 Step number   1 out of a maximum of  468
 All quantities printed in internal units (Hartrees-Bohrs-Radians)
 Mixed Optimization -- RFO/linear search
 Second derivative matrix not updated -- first step.
 ITU=  0
     Eigenvalues ---    0.00230   0.00230   0.00242   0.00245   0.00249
     Eigenvalues ---    0.00262   0.00421   0.00477   0.00508   0.00528
     Eigenvalues ---    0.00532   0.00551   0.00574   0.00612   0.00846
     Eigenvalues ---    0.00950   0.01039   0.01244   0.01277   0.01289
     Eigenvalues ---    0.01299   0.01306   0.01308   0.01327   0.01348
     Eigenvalues ---    0.01369   0.01486   0.01593   0.01841   0.01868
     Eigenvalues ---    0.02075   0.02104   0.02108   0.02121   0.02193
     Eigenvalues ---    0.02287   0.02316   0.02380   0.02506   0.02564
     Eigenvalues ---    0.02569   0.02812   0.03027   0.03417   0.03514
     Eigenvalues ---    0.03733   0.04108   0.04175   0.04250   0.04334
     Eigenvalues ---    0.04605   0.04741   0.04823   0.04958   0.05083
     Eigenvalues ---    0.05199   0.05258   0.05504   0.05701   0.05706
     Eigenvalues ---    0.05719   0.05723   0.05726   0.05775   0.05853
     Eigenvalues ---    0.05983   0.06078   0.06131   0.06317   0.06469
     Eigenvalues ---    0.06782   0.06991   0.07046   0.07132   0.07226
     Eigenvalues ---    0.07237   0.07245   0.07249   0.07250   0.07252
     Eigenvalues ---    0.07338   0.07476   0.07859   0.07921   0.08044
     Eigenvalues ---    0.08191   0.08489   0.08634   0.08876   0.09128
     Eigenvalues ---    0.09294   0.09522   0.10808   0.11090   0.11251
     Eigenvalues ---    0.11523   0.11987   0.12760   0.13245   0.14548
     Eigenvalues ---    0.15441   0.16000   0.16000   0.16000   0.16000
     Eigenvalues ---    0.16000   0.16000   0.16000   0.16000   0.16000
     Eigenvalues ---    0.16000   0.16000   0.16000   0.16000   0.16000
     Eigenvalues ---    0.16000   0.16000   0.16000   0.16000   0.16000
     Eigenvalues ---    0.16000   0.16000   0.16000   0.16424   0.16725
     Eigenvalues ---    0.18335   0.18469   0.21005   0.21761   0.21999
     Eigenvalues ---    0.22000   0.22798   0.22888   0.23430   0.23509
     Eigenvalues ---    0.24031   0.24360   0.24990   0.24999   0.25000
     Eigenvalues ---    0.25000   0.25000   0.25000   0.25000   0.25000
     Eigenvalues ---    0.25000   0.25000   0.25000   0.25000   0.25000
     Eigenvalues ---    0.25533   0.25707   0.25765   0.26356   0.26926
     Eigenvalues ---    0.27412   0.27563   0.28456   0.28468   0.28553
     Eigenvalues ---    0.28572   0.28601   0.28688   0.29132   0.29800
     Eigenvalues ---    0.30030   0.30992   0.31160   0.31952   0.32782
     Eigenvalues ---    0.34053   0.36006   0.37019   0.37088   0.37126
     Eigenvalues ---    0.37143   0.37157   0.37179   0.37188   0.37190
     Eigenvalues ---    0.37211   0.37216   0.37219   0.37219   0.37222
     Eigenvalues ---    0.37225   0.37227   0.37234   0.37257   0.37259
     Eigenvalues ---    0.37261   0.37263   0.37266   0.37283   0.37301
     Eigenvalues ---    0.37302   0.37322   0.37325   0.37334   0.37349
     Eigenvalues ---    0.37364   0.37390   0.37396   0.37398   0.37401
     Eigenvalues ---    0.40792   0.40920   0.41030   0.41106   0.41133
     Eigenvalues ---    0.41343   0.41573   0.41582   0.41800   0.43223
     Eigenvalues ---    0.45336   0.45924   0.50993   0.52457   0.54361
     Eigenvalues ---    0.55403   0.55531   0.61730   0.79784   0.79799
     Eigenvalues ---    0.79842   0.80033   0.80143
 RFO step:  Lambda=-1.04242520D+00 EMin= 2.30000000D-03
 Linear search not attempted -- first point.
 Maximum step size (   0.300) exceeded in Quadratic search.
    -- Step size scaled by   0.423
 Iteration  1 RMS(Cart)=  0.19475165 RMS(Int)=  0.00491736
 Iteration  2 RMS(Cart)=  0.02198006 RMS(Int)=  0.00018270
[...]
     59          1           0        0.955336   -4.381715    0.892228
     60          1           0        2.774032   -2.935014   -1.075389
     61          1           0        1.152804   -3.606197   -1.294464
     62          1           0        1.508230   -1.989175   -1.804236
     63          1           0       -1.174454   -3.595791    0.439811
     64          1           0        0.907165    3.683595   -2.179036
     65          1           0        2.251194    1.316765    2.854159
     66          1           0        2.434589    0.085436    4.073239
     67          1           0        3.656497    0.251759    2.822877
     68          1           0       -2.959223    2.064248    4.126203
     69          1           0       -3.276745    0.623638    3.168914
     70          1           0       -1.672862    0.865808    3.828932
     71          1           0        5.902056   -1.990297   -2.086164
     72          1           0        6.411036   -2.526867   -0.495286
     73          1           0        7.294535   -1.218162   -1.311988
     74          1           0       -4.531254   -1.688410   -3.113246
     75          1           0       -3.873986   -0.301798    0.831184
     76          1           0       -6.960549   -1.836479   -2.669910
     77          1           0       -6.297212   -0.438961    1.296805
     78          1           0       -7.830240   -1.208135   -0.458844
 ---------------------------------------------------------------------
 Rotational constants (GHZ):           0.1358103           0.0700197           0.0662885

 **********************************************************************

            Population analysis using the SCF Density.

 **********************************************************************

 Orbital symmetries:
       Occupied  (A) (A) (A) (A) (A) (A) (A) (A) (A) (A) (A) (A)
                 (A) (A) (A) (A) (A) (A) (A) (A) (A) (A) (A) (A)
                 (A) (A) (A) (A) (A) (A) (A) (A) (A) (A) (A) (A)
                 (A) (A) (A) (A) (A) (A) (A) (A) (A) (A) (A) (A)
                 (A) (A) (A) (A) (A) (A) (A) (A) (A) (A) (A) (A)
                 (A) (A) (A) (A) (A) (A) (A) (A) (A) (A) (A) (A)
                 (A) (A) (A) (A) (A) (A) (A) (A) (A) (A) (A) (A)
                 (A) (A) (A) (A) (A) (A) (A) (A) (A) (A) (A) (A)
                 (A) (A) (A) (A) (A) (A) (A) (A) (A) (A) (A) (A)
                 (A) (A) (A) (A) (A) (A) (A) (A) (A) (A) (A) (A)
                 (A) (A) (A) (A) (A) (A) (A) (A) (A) (A) (A) (A)
                 (A) (A) (A) (A) (A) (A) (A) (A) (A) (A) (A) (A)
                 (A) (A) (A) (A) (A) (A) (A) (A) (A) (A) (A)
       Virtual   (A) (A) (A) (A) (A) (A) (A) (A) (A) (A) (A) (A)
                 (A) (A) (A) (A) (A) (A) (A) (A) (A) (A) (A) (A)
                 (A) (A) (A) (A) (A) (A) (A) (A) (A) (A) (A) (A)
                 (A) (A) (A) (A) (A) (A) (A) (A) (A) (A) (A) (A)
                 (A) (A) (A) (A) (A) (A) (A) (A) (A) (A) (A) (A)
                 (A) (A) (A) (A) (A) (A) (A) (A) (A) (A) (A) (A)
                 (A) (A) (A) (A) (A) (A) (A) (A) (A) (A) (A) (A)
                 (A) (A) (A) (A) (A) (A) (A) (A) (A) (A) (A) (A)
                 (A) (A) (A) (A) (A) (A) (A) (A) (A) (A) (A) (A)
                 (A) (A) (A) (A) (A) (A) (A) (A) (A) (A) (A) (A)
                 (A) (A) (A) (A) (A) (A) (A) (A) (A) (A) (A) (A)
                 (A) (A) (A) (A) (A) (A) (A) (A) (A) (A) (A) (A)
                 (A) (A) (A) (A) (A) (A) (A) (A) (A) (A) (A) (A)
                 (A) (A) (A) (A) (A) (A) (A) (A) (A) (A) (A) (A)
                 (A) (A) (A) (A) (A) (A) (A) (A) (A) (A) (A) (A)
                 (A) (A) (A) (A) (A) (A) (A) (A) (A) (A) (A) (A)
                 (A) (A) (A) (A) (A) (A) (A) (A) (A) (A) (A) (A)
                 (A) (A) (A) (A) (A) (A) (A) (A) (A) (A) (A) (A)
                 (A) (A) (A) (A) (A) (A) (A) (A) (A) (A) (A) (A)
                 (A) (A) (A) (A) (A) (A) (A) (A) (A) (A) (A) (A)
                 (A) (A) (A) (A) (A) (A) (A) (A) (A) (A) (A) (A)
                 (A) (A) (A) (A) (A) (A) (A) (A) (A) (A) (A) (A)
                 (A) (A) (A) (A) (A) (A) (A) (A) (A) (A) (A) (A)
                 (A) (A) (A) (A) (A) (A) (A) (A) (A) (A) (A) (A)
                 (A) (A) (A) (A) (A) (A) (A)
 The electronic state is 1-A.
 Alpha  occ. eigenvalues --  -20.52088 -20.51093 -20.50953 -20.47586 -20.47528
 Alpha  occ. eigenvalues --  -20.47467 -20.47095 -20.47071 -20.46111 -20.45851
 Alpha  occ. eigenvalues --  -20.42622 -11.35603 -11.34490 -11.34477 -11.30283
 Alpha  occ. eigenvalues --  -11.30091 -11.27922 -11.27422 -11.26802 -11.25892
 Alpha  occ. eigenvalues --  -11.24589 -11.24163 -11.23786 -11.23190 -11.21725
 Alpha  occ. eigenvalues --  -11.21701 -11.21246 -11.20958 -11.20517 -11.20226
 Alpha  occ. eigenvalues --  -11.20164 -11.19917 -11.19466 -11.19317 -11.19309
 Alpha  occ. eigenvalues --  -11.19042 -11.18536 -11.18352 -11.18215 -11.17984
 Alpha  occ. eigenvalues --  -11.15863 -11.14740  -1.48637  -1.48208  -1.47466
 Alpha  occ. eigenvalues --   -1.42787  -1.42349  -1.40188  -1.38807  -1.38170
 Alpha  occ. eigenvalues --   -1.37635  -1.36774  -1.33966  -1.19555  -1.18564
 Alpha  occ. eigenvalues --   -1.14597  -1.10438  -1.07676  -1.07129  -1.06402
 Alpha  occ. eigenvalues --   -1.05768  -1.04674  -1.04070  -1.02461  -1.00837
 Alpha  occ. eigenvalues --   -1.00200  -0.95986  -0.95140  -0.94204  -0.93553
 Alpha  occ. eigenvalues --   -0.90772  -0.88378  -0.87112  -0.85716  -0.84908
 Alpha  occ. eigenvalues --   -0.83487  -0.81931  -0.80417  -0.78709  -0.78299
 Alpha  occ. eigenvalues --   -0.76149  -0.75112  -0.74163  -0.73167  -0.71909
 Alpha  occ. eigenvalues --   -0.70946  -0.70351  -0.69996  -0.69492  -0.69018
 Alpha  occ. eigenvalues --   -0.68584  -0.68134  -0.68037  -0.66811  -0.66673
 Alpha  occ. eigenvalues --   -0.66363  -0.65245  -0.65043  -0.64419  -0.64171
 Alpha  occ. eigenvalues --   -0.63928  -0.63600  -0.63316  -0.63135  -0.61904
 Alpha  occ. eigenvalues --   -0.61636  -0.61418  -0.60777  -0.60544  -0.59964
 Alpha  occ. eigenvalues --   -0.59679  -0.58850  -0.58608  -0.58036  -0.57425
 Alpha  occ. eigenvalues --   -0.57005  -0.56487  -0.56218  -0.56160  -0.55554
 Alpha  occ. eigenvalues --   -0.55397  -0.54975  -0.54638  -0.54328  -0.53620
 Alpha  occ. eigenvalues --   -0.53251  -0.52739  -0.52497  -0.52320  -0.52092
 Alpha  occ. eigenvalues --   -0.51772  -0.51555  -0.51238  -0.51061  -0.50716
 Alpha  occ. eigenvalues --   -0.50164  -0.49112  -0.48736  -0.48138  -0.47977
 Alpha  occ. eigenvalues --   -0.47142  -0.45988  -0.45640  -0.45131  -0.45099
 Alpha  occ. eigenvalues --   -0.44287  -0.43993  -0.43581  -0.42733  -0.41741
 Alpha  occ. eigenvalues --   -0.41409  -0.39709  -0.36291  -0.36110  -0.35905
 Alpha virt. eigenvalues --    0.06408   0.08706   0.13277   0.14122   0.16482
 Alpha virt. eigenvalues --    0.18055   0.19600   0.20913   0.21872   0.22977
 Alpha virt. eigenvalues --    0.23521   0.23750   0.25638   0.26259   0.26667
 Alpha virt. eigenvalues --    0.27236   0.28113   0.28697   0.29003   0.29836
 Alpha virt. eigenvalues --    0.30192   0.30451   0.30865   0.31189   0.31570
 Alpha virt. eigenvalues --    0.32146   0.32289   0.32638   0.33002   0.33166
 Alpha virt. eigenvalues --    0.33594   0.33851   0.34509   0.34947   0.35146
 Alpha virt. eigenvalues --    0.35389   0.35595   0.35758   0.36311   0.36504
 Alpha virt. eigenvalues --    0.36815   0.37227   0.37802   0.37979   0.38506
 Alpha virt. eigenvalues --    0.39036   0.39108   0.40212   0.40499   0.40870
 Alpha virt. eigenvalues --    0.41357   0.42011   0.42365   0.42856   0.43360
 Alpha virt. eigenvalues --    0.43796   0.44521   0.44889   0.45425   0.45960
 Alpha virt. eigenvalues --    0.46460   0.46798   0.47121   0.47659   0.48251
 Alpha virt. eigenvalues --    0.48919   0.49742   0.50074   0.50421   0.51463
 Alpha virt. eigenvalues --    0.52014   0.52686   0.53294   0.53888   0.54591
 Alpha virt. eigenvalues --    0.55243   0.55912   0.56245   0.58086   0.59297
 Alpha virt. eigenvalues --    0.59980   0.62122   0.62663   0.63923   0.65705
 Alpha virt. eigenvalues --    0.66633   0.67436   0.68757   0.72767   0.76076
 Alpha virt. eigenvalues --    0.81856   0.85245   0.86659   0.88230   0.89156
 Alpha virt. eigenvalues --    0.89735   0.90735   0.91292   0.91696   0.92263
 Alpha virt. eigenvalues --    0.92672   0.92886   0.93834   0.94286   0.94598
 Alpha virt. eigenvalues --    0.95178   0.95527   0.96275   0.96489   0.97219
 Alpha virt. eigenvalues --    0.97484   0.98246   0.98520   0.98903   0.99404
 Alpha virt. eigenvalues --    0.99597   0.99980   1.00495   1.00548   1.00772
 Alpha virt. eigenvalues --    1.01580   1.01768   1.03121   1.03284   1.03756
 Alpha virt. eigenvalues --    1.04031   1.04885   1.05626   1.05951   1.06441
 Alpha virt. eigenvalues --    1.06593   1.06702   1.07103   1.07598   1.07803
 Alpha virt. eigenvalues --    1.08565   1.09012   1.09430   1.09717   1.09795
 Alpha virt. eigenvalues --    1.10611   1.11785   1.12103   1.12233   1.13231
 Alpha virt. eigenvalues --    1.14088   1.15000   1.15701   1.16153   1.16694
 Alpha virt. eigenvalues --    1.17639   1.18915   1.19415   1.19951   1.22103
 Alpha virt. eigenvalues --    1.22971   1.24643   1.25019   1.26280   1.27272
 Alpha virt. eigenvalues --    1.27622   1.27734   1.28986   1.29295   1.30534
 Alpha virt. eigenvalues --    1.31167   1.31567   1.32367   1.32989   1.33272
 Alpha virt. eigenvalues --    1.33559   1.34473   1.34661   1.34685   1.35443
 Alpha virt. eigenvalues --    1.35764   1.36001   1.36263   1.36929   1.37111
 Alpha virt. eigenvalues --    1.37934   1.38805   1.39060   1.39648   1.40018
 Alpha virt. eigenvalues --    1.41716   1.42020   1.42520   1.43591   1.44143
 Alpha virt. eigenvalues --    1.44789   1.45455   1.46261   1.46437   1.47453
 Alpha virt. eigenvalues --    1.48515   1.48765   1.49351   1.50662   1.51456
 Alpha virt. eigenvalues --    1.51859   1.52481   1.53494   1.55001   1.55197
 Alpha virt. eigenvalues --    1.56484   1.57539   1.58919   1.60602   1.61442
 Alpha virt. eigenvalues --    1.61599   1.63668   1.64630   1.66626   1.69565
 Alpha virt. eigenvalues --    1.70569   1.71052   1.72754   1.74435   1.77142
 Alpha virt. eigenvalues --    1.78502   1.79143   1.79994   1.80405   1.83672
 Alpha virt. eigenvalues --    1.84642   1.87478   1.87830   1.89151   1.89884
 Alpha virt. eigenvalues --    1.90802   1.91697   1.92329   1.94165   1.95027
 Alpha virt. eigenvalues --    1.95587   1.97251   1.98315   2.00432   2.01126
 Alpha virt. eigenvalues --    2.02118   2.02457   2.02963   2.03292   2.03342
 Alpha virt. eigenvalues --    2.05032   2.07465   2.08475   2.08628   2.09509
 Alpha virt. eigenvalues --    2.12031   2.12807   2.13484   2.14009   2.15828
 Alpha virt. eigenvalues --    2.17265   2.17887   2.19452   2.21308   2.22216
 Alpha virt. eigenvalues --    2.23194   2.24274   2.26084   2.27067   2.28317
 Alpha virt. eigenvalues --    2.29187   2.29698   2.32776   2.34904   2.41603
 Alpha virt. eigenvalues --    2.44726   2.46993   2.48355   2.52276   2.55098
 Alpha virt. eigenvalues --    2.58332   2.61890   2.62800   2.71412   2.76668
 Alpha virt. eigenvalues --    2.86274   2.86982   2.91682   3.20961   3.54492
 Alpha virt. eigenvalues --    3.57718   3.59221   3.63578   3.65785   3.69929
 Alpha virt. eigenvalues --    3.70365   3.73681   3.80515   3.84000   3.89823
          Condensed to atoms (all electrons):
 Mulliken charges:
               1
     1  O   -0.638181
     2  O   -0.738060
     3  O   -0.727952
     4  O   -0.685624
     5  O   -0.695870
     6  O   -0.689744
     7  O   -0.558186
     8  O   -0.591209
     9  O   -0.606209
    10  O   -0.624680
    11  O   -0.611905
    12  C   -0.329528
    13  C    0.188100
    14  C   -0.387432
    15  C    0.118871
    16  C    0.138459
    17  C    0.292826
    18  C    0.174205
    19  C   -0.518425
    20  C   -0.324765
    21  C   -0.051488
    22  C    0.663762
    23  C   -0.528504
    24  C    0.053397
    25  C   -0.524685
    26  C   -0.046412
    27  C    0.594939
    28  C   -0.159291
    29  C   -0.511388
    30  C   -0.555313
    31  C   -0.606133
    32  C    0.865432
    33  C    1.016371
    34  C   -0.710726
    35  C    0.876668
    36  C   -0.262894
    37  C   -0.685184
    38  C   -0.179250
    39  C   -0.204803
    40  C   -0.242888
    41  C   -0.242423
    42  C   -0.219181
    43  H    0.316656
    44  H    0.279846
    45  H    0.319859
    46  H    0.266842
    47  H    0.223317
    48  H    0.267210
    49  H    0.233872
    50  H    0.271515
    51  H    0.244186
    52  H    0.316304
    53  H    0.215232
    54  H    0.269206
    55  H    0.214559
    56  H    0.297815
    57  H    0.235583
    58  H    0.208248
    59  H    0.195702
    60  H    0.243684
    61  H    0.229549
    62  H    0.220231
    63  H    0.388998
    64  H    0.423559
    65  H    0.222842
    66  H    0.264878
    67  H    0.226732
    68  H    0.254714
    69  H    0.246684
    70  H    0.288270
    71  H    0.273295
    72  H    0.249329
    73  H    0.251344
    74  H    0.287867
    75  H    0.275930
    76  H    0.252027
    77  H    0.246535
    78  H    0.252881
 Sum of Mulliken charges =  -0.00000
 Mulliken charges with hydrogens summed into heavy atoms:
               1
     1  O   -0.638181
     2  O   -0.738060
     3  O   -0.727952
     4  O   -0.296626
     5  O   -0.272311
     6  O   -0.689744
     7  O   -0.558186
     8  O   -0.591209
     9  O   -0.606209
    10  O   -0.624680
    11  O   -0.611905
    12  C   -0.012873
    13  C    0.188100
    14  C   -0.387432
    15  C    0.398717
    16  C    0.458318
    17  C    0.292826
    18  C    0.441047
    19  C   -0.027898
    20  C   -0.324765
    21  C    0.453899
    22  C    0.663762
    23  C    0.031986
    24  C    0.053397
    25  C    0.174313
    26  C    0.251402
    27  C    0.594939
    28  C   -0.159291
    29  C    0.128144
    30  C    0.138152
    31  C    0.108319
    32  C    0.865432
    33  C    1.016371
    34  C    0.078942
    35  C    0.876668
    36  C   -0.262894
    37  C    0.088784
    38  C    0.108617
    39  C    0.071127
    40  C    0.009139
    41  C    0.004112
    42  C    0.033700
 Electronic spatial extent (au):  <R**2>=          18532.3995
 Charge=              0.0000 electrons
 Dipole moment (field-independent basis, Debye):
    X=             -2.7378    Y=             -5.5446    Z=              4.7388  Tot=              7.7906
 Quadrupole moment (field-independent basis, Debye-Ang):
   XX=           -228.7053   YY=           -256.9980   ZZ=           -265.7589
   XY=             -5.7348   XZ=              6.4841   YZ=              6.3311
 Traceless Quadrupole moment (field-independent basis, Debye-Ang):
   XX=             21.7821   YY=             -6.5106   ZZ=            -15.2715
   XY=             -5.7348   XZ=              6.4841   YZ=              6.3311
 Octapole moment (field-independent basis, Debye-Ang**2):
  XXX=           -140.2856  YYY=            -89.3239  ZZZ=            -21.0587  XYY=             44.9493
  XXY=           -136.3802  XXZ=              2.6936  XZZ=            -36.6678  YZZ=              3.7012
  YYZ=             41.1106  XYZ=             34.1990
 Hexadecapole moment (field-independent basis, Debye-Ang**3):
 XXXX=         -12824.5561 YYYY=          -5565.9246 ZZZZ=          -4763.2776 XXXY=           -238.2523
 XXXZ=              8.2617 YYYX=             35.7306 YYYZ=             13.4134 ZZZX=            -31.4961
 ZZZY=            124.2689 XXYY=          -3490.0069 XXZZ=          -3014.0115 YYZZ=          -1710.4076
 XXYZ=            203.0012 YYXZ=             77.5197 ZZXY=            -36.4433
 N-N= 5.870634980560D+03 E-N=-1.644331331077D+04  KE= 2.003133995038D+03
 Unable to Open any file for archive entry.
 1\1\GINC-LAC-441\FOpt\RHF\3-21G*\C31H36O11\LIZHEN6\05-Apr-2023\0\\# HF
 /3-21G* Geom=Chk Guess=CopyChk Opt\\CLR\\0,1\O,-0.2389340002,3.4965073
 321,-1.3245387036\O,-1.1290883668,1.5673977042,1.2971450311\O,-1.78212
 53573,-0.3102216999,-0.5123970328\O,-1.0684403799,-2.7607707074,-0.067
 1127653\O,2.2494606013,3.1838839926,-2.2468363054\O,4.2590785935,-1.50
 21990422,0.0982842869\O,3.3819014216,-0.4272931863,-2.0375640918\O,0.1
 053656439,-0.4814024433,3.9720773378\O,-2.2977732708,3.4761221234,1.55
 52506458\O,-2.0074426588,-1.1469897034,-2.5912957844\O,5.7273345938,0.
 1749817526,-0.1613718038\C,0.4432873456,0.7224405547,-0.2103562586\C,-
 0.4836868957,1.9149878513,0.0538687133\C,1.5850683374,0.9532405667,-1.
 26160663\C,0.2845005206,3.2565394795,0.0458637386\C,-0.3555344325,-0.5
 969880587,-0.4737056115\C,-0.1894687905,-1.7773061249,0.5220820432\C,2
 .3248731864,2.3655680442,-1.0779456715\C,1.7888730312,3.1576957713,0.1
 128516944\C,1.258904133,-2.3163569587,0.5499807251\C,-1.2989627946,2.4
 694365458,-1.1327936545\C,2.728242302,-0.071430748,-1.0855710934\C,-0.
 6529445953,-1.4484933982,1.9416040044\C,2.1102209258,-1.18885184,1.138
 877057\C,1.1251780625,0.8569933556,-2.7311000451\C,3.1997104318,-0.551
 7566644,0.3185937917\C,0.4116463318,-0.8767984662,2.8615888131\C,1.784
 4187844,-0.6707658097,2.3193320884\C,1.3764072258,-3.542759519,1.49543
 23804\C,1.6909540315,-2.8387172756,-0.8378148511\C,2.600512183,0.32364
 08209,3.1184215321\C,-1.9847571479,2.3888709604,1.9658734208\C,-2.5123
 781233,-0.7926735494,-1.5568524159\C,-2.4588931158,1.7356024909,3.2322
 503771\C,5.4774120498,-0.9941248015,-0.2732200381\C,-3.9634356199,-0.7
 548532622,-1.2929191725\C,6.3610379002,-2.0841594023,-0.7872494998\C,-
 4.8122135006,-1.1806221598,-2.3014562601\C,-4.4752204196,-0.3081595327
 ,-0.0870516341\C,-6.1785865093,-1.1623925413,-2.1031641344\C,-5.842745
 0765,-0.2878499765,0.1100540936\C,-6.6929435679,-0.7153086539,-0.89681
 08445\H,0.9178680185,0.625164101,0.7384388489\H,-0.1343082619,3.975743
 3227,0.723624917\H,-0.1163209099,-0.9935303702,-1.4371786598\H,3.38032
 45894,2.1824278992,-0.9438861021\H,2.06113183,2.6980253549,1.055542782
 8\H,2.2397270354,4.1410420468,0.0774426523\H,-1.4092983481,1.841206626
 8,-1.9932352098\H,-2.2199155516,2.9351250421,-0.8381846992\H,-1.028659
 4191,-2.3481121581,2.4174511855\H,-1.461635109,-0.7388678696,1.8997822
 36\H,0.4216620722,1.6382924331,-2.9555398209\H,1.9775907558,0.98460917
 44,-3.3741848057\H,0.6653992704,-0.0942435875,-2.9533771659\H,3.602382
 4079,0.3083501337,0.8278533991\H,2.401699237,-3.8909202105,1.484029889
 5\H,1.1187438389,-3.3093626943,2.5181713641\H,0.7443945238,-4.34860920
 37,1.140728997\H,2.731639075,-3.1210591283,-0.8127548048\H,1.080231351
 5,-3.6986395346,-1.0698815634\H,1.5607529781,-2.1351533799,-1.64046295
 42\H,-1.3095337826,-3.453511096,0.5588862846\H,1.3468998751,3.53805587
 92,-2.3120547027\H,2.3291570948,1.3484342913,2.8823726851\H,2.38239187
 51,0.1711691169,4.1657964001\H,3.6620577172,0.1965148278,2.9633231682\
 H,-2.868474216,2.4870957686,3.8890248283\H,-3.2404289994,1.0228958858,
 2.9888310866\H,-1.6521314574,1.1962544374,3.7057455619\H,5.9529299009,
 -2.4282433991,-1.7303511863\H,6.3611215254,-2.9148157721,-0.0949651465
 \H,7.3604303659,-1.7075264412,-0.9340804309\H,-4.3884021742,-1.5197982
 823,-3.2242005319\H,-3.8018883933,0.0200880263,0.6742580086\H,-6.83810
 22307,-1.4914240722,-2.8805304555\H,-6.2457264737,0.0600742587,1.03990
 8673\H,-7.7535230453,-0.6984152777,-0.7420422013\\Version=ES64L-G16Rev
 C.01\State=1-A\HF=-2007.119985\RMSD=6.959e-09\RMSF=8.908e-06\Dipole=-1
 .2916589,-2.0119297,1.9179112\Quadrupole=15.0917503,-3.7923864,-11.299
 3639,-5.4506678,6.4710685,3.792469\PG=C01 [X(C31H36O11)]\\@
 The archive entry for this job was punched.


 WE DON'T KNOW ONE MILLIONTH OF ONE PERCENT ABOUT
 ANYTHING.
                                     T. A. EDISON.
 Job cpu time:       0 days  3 hours 39 minutes 39.7 seconds.
 Elapsed time:       0 days  0 hours 27 minutes 46.7 seconds.
 File lengths (MBytes):  RWF=    368 Int=      0 D2E=      0 Chk=     48 Scr=     32
 Normal termination of Gaussian 16 at Wed Apr  5 18:19:34 2023.
