 Entering Gaussian System, Link 0=g16
 Initial command:
 /opt/software/Gaussian/g16-AVX2-C.01/g16/l1.exe "/mnt/gs21/scratch/lizhen6/Gau-100540.inp" -scrdir="/mnt/gs21/scratch/lizhen6/"
 Entering Link 1 = /opt/software/Gaussian/g16-AVX2-C.01/g16/l1.exe PID=    100545.
  
 Copyright (c) 1988-2019, Gaussian, Inc.  All Rights Reserved.
  
 This is part of the Gaussian(R) 16 program.  It is based on
 the Gaussian(R) 09 system (copyright 2009, Gaussian, Inc.),
 the Gaussian(R) 03 system (copyright 2003, Gaussian, Inc.),
 the Gaussian(R) 98 system (copyright 1998, Gaussian, Inc.),
 the Gaussian(R) 94 system (copyright 1995, Gaussian, Inc.),
 the Gaussian 92(TM) system (copyright 1992, Gaussian, Inc.),
 the Gaussian 90(TM) system (copyright 1990, Gaussian, Inc.),
 the Gaussian 88(TM) system (copyright 1988, Gaussian, Inc.),
 the Gaussian 86(TM) system (copyright 1986, Carnegie Mellon
 University), and the Gaussian 82(TM) system (copyright 1983,
 Carnegie Mellon University). Gaussian is a federally registered
 trademark of Gaussian, Inc.
  
 This software contains proprietary and confidential information,
 including trade secrets, belonging to Gaussian, Inc.
  
 This software is provided under written license and may be
 used, copied, transmitted, or stored only in accord with that
 written license.
  
 The following legend is applicable only to US Government
 contracts under FAR:
  
                    RESTRICTED RIGHTS LEGEND
  
 Use, reproduction and disclosure by the US Government is
 subject to restrictions as set forth in subparagraphs (a)
 and (c) of the Commercial Computer Software - Restricted
 Rights clause in FAR 52.227-19.
  
 Gaussian, Inc.
 340 Quinnipiac St., Bldg. 40, Wallingford CT 06492
  
  
 ---------------------------------------------------------------
 Warning -- This program may not be used in any manner that
 competes with the business of Gaussian, Inc. or will provide
 assistance to any competitor of Gaussian, Inc.  The licensee
 of this program is prohibited from giving any competitor of
 Gaussian, Inc. access to this program.  By using this program,
 the user acknowledges that Gaussian, Inc. is engaged in the
 business of creating and licensing software in the field of
 computational chemistry and represents and warrants to the
 licensee that it is not a competitor of Gaussian, Inc. and that
 it will not use this program in any manner prohibited above.
 ---------------------------------------------------------------
  

 Cite this work as:
 Gaussian 16, Revision C.01,
 M. J. Frisch, G. W. Trucks, H. B. Schlegel, G. E. Scuseria, 
 M. A. Robb, J. R. Cheeseman, G. Scalmani, V. Barone, 
 G. A. Petersson, H. Nakatsuji, X. Li, M. Caricato, A. V. Marenich, 
 J. Bloino, B. G. Janesko, R. Gomperts, B. Mennucci, H. P. Hratchian, 
 J. V. Ortiz, A. F. Izmaylov, J. L. Sonnenberg, D. Williams-Young, 
 F. Ding, F. Lipparini, F. Egidi, J. Goings, B. Peng, A. Petrone, 
 T. Henderson, D. Ranasinghe, V. G. Zakrzewski, J. Gao, N. Rega, 
 G. Zheng, W. Liang, M. Hada, M. Ehara, K. Toyota, R. Fukuda, 
 J. Hasegawa, M. Ishida, T. Nakajima, Y. Honda, O. Kitao, H. Nakai, 
 T. Vreven, K. Throssell, J. A. Montgomery, Jr., J. E. Peralta, 
 F. Ogliaro, M. J. Bearpark, J. J. Heyd, E. N. Brothers, K. N. Kudin, 
 V. N. Staroverov, T. A. Keith, R. Kobayashi, J. Normand, 
 K. Raghavachari, A. P. Rendell, J. C. Burant, S. S. Iyengar, 
 J. Tomasi, M. Cossi, J. M. Millam, M. Klene, C. Adamo, R. Cammi, 
 J. W. Ochterski, R. L. Martin, K. Morokuma, O. Farkas, 
 J. B. Foresman, and D. J. Fox, Gaussian, Inc., Wallingford CT, 2019.
 
 ******************************************
 Gaussian 16:  ES64L-G16RevC.01  3-Jul-2019
                26-Mar-2023 
 ******************************************
 %Chk=6WZ3_small_opt2.chk
 %Mem=32GB
 %NProcShared=8
 Will use up to    8 processors via shared memory.
 --------------------------------------
 # HF/3-21G* Geom=Chk Guess=CopyChk Opt
 --------------------------------------
 1/18=20,19=15,29=2,38=1/1,3;
 2/9=110,12=2,40=1/2;
 3/5=5,7=1,11=9,14=-4,25=1,30=1,71=1/1,2,3;
 4/5=18/1;
 5/5=2/2;
 6/7=2,8=2,9=2,10=2,28=1/1;
 7//1,2,3,16;
 1/18=20,19=15/3(2);
 2/9=110/2;
 99//99;
 2/9=110/2;
 3/5=5,7=1,11=9,14=-2,25=1,30=1,71=1/1,2,3;
 4/5=5,16=3,69=1/1;
 5/5=2,38=5/2;
 7//1,2,3,16;
 1/18=20,19=15/3(-5);
 2/9=110/2;
 6/7=2,8=2,9=2,10=2,19=2,28=1/1;
 99/9=1/99;
 ---
 CLR
 ---
 Structure from the checkpoint file:  "6WZ3_small_opt2.chk"
 Charge =  0 Multiplicity = 1
 Z-Matrix found in chk file.
 O,0,-0.025,3.851,-1.15
 O,0,-1.538,1.706,0.776
 O,0,-1.829,-0.143,-0.911
 O,0,-1.061,-2.774,-0.91
 O,0,2.855,3.307,-1.49
 O,0,4.257,-1.52,0.486
 O,0,3.676,-0.244,-1.762
 O,0,-0.702,-0.317,3.055
 O,0,-2.775,3.657,0.745
 O,0,-2.264,-1.925,-2.301
 O,0,5.706,0.26,0.223
 C,0,0.391,0.789,-0.292
 C,0,-0.522,2.035,-0.157
 C,0,1.776,1.111,-1.018
 C,0,0.19,3.342,0.195
 C,0,-0.425,-0.454,-0.82
 C,0,-0.304,-1.857,-0.084
 C,0,2.457,2.417,-0.441
 C,0,1.646,3.21,0.582
 C,0,1.155,-2.412,0.011
 C,0,-1.065,2.85,-1.344
 C,0,2.883,0.001,-0.843
 C,0,-0.973,-1.931,1.313
 C,0,1.901,-1.469,0.975
 C,0,1.592,1.25,-2.56
 C,0,3.107,-0.692,0.51
 C,0,-0.098,-1.493,2.499
 C,0,1.353,-1.184,2.188
 C,0,1.21,-3.843,0.639
 C,0,1.727,-2.646,-1.413
 C,0,2.078,-0.442,3.286
 C,0,-2.151,2.777,1.322
 C,0,-2.603,-1.109,-1.458
 C,0,-1.946,2.73,2.806
 C,0,5.418,-0.92,0.078
 C,0,-3.972,-1.051,-0.886
 C,0,6.309,-1.925,-0.585
 C,0,-4.705,-2.216,-0.791
 C,0,-4.469,0.165,-0.466
 C,0,-5.991,-2.162,-0.253
 C,0,-5.754,0.219,0.071
 C,0,-6.515,-0.944,0.178
 H,0,0.658,0.594,0.739
 H,0,-0.267,4.04,0.904
 H,0,-0.133,-0.613,-1.86
 H,0,3.4,2.159,0.053
 H,0,1.708,2.709,1.556
 H,0,2.083,4.209,0.709
 H,0,-0.997,2.358,-2.317
 H,0,-2.059,3.299,-1.315
 H,0,-1.288,-2.965,1.508
 H,0,-1.92,-1.378,1.311
 H,0,0.943,2.075,-2.845
 H,0,2.548,1.44,-3.065
 H,0,1.205,0.339,-3.022
 H,0,3.325,0.132,1.197
 H,0,-0.14,-2.257,3.284
 H,0,2.25,-4.19,0.698
 H,0,0.811,-3.899,1.655
 H,0,0.664,-4.579,0.038
 H,0,2.787,-2.92,-1.373
 H,0,1.21,-3.471,-1.919
 H,0,1.627,-1.788,-2.076
 H,0,-1.14,-3.628,-0.455
 H,0,2.06,3.762,-1.816
 H,0,1.831,0.623,3.263
 H,0,1.792,-0.843,4.265
 H,0,3.165,-0.558,3.223
 H,0,-0.76,0.347,2.351
 H,0,-2.317,3.659,3.249
 H,0,-2.507,1.894,3.23
 H,0,-0.883,2.645,3.044
 H,0,5.793,-2.371,-1.44
 H,0,6.597,-2.695,0.133
 H,0,7.212,-1.427,-0.948
 H,0,-4.305,-3.171,-1.119
 H,0,-3.909,1.089,-0.562
 H,0,-6.583,-3.069,-0.169
 H,0,-6.165,1.169,0.401
 H,0,-7.517,-0.901,0.595
 Recover connectivity data from disk.

 GradGradGradGradGradGradGradGradGradGradGradGradGradGradGradGradGradGrad
 Berny optimization.
 Initialization pass.
                           ----------------------------
                           !    Initial Parameters    !
                           ! (Angstroms and Degrees)  !
 --------------------------                            --------------------------
 ! Name  Definition              Value          Derivative Info.                !
 --------------------------------------------------------------------------------
 ! R1    R(1,15)                 1.4541         estimate D2E/DX2                !
 ! R2    R(1,21)                 1.4564         estimate D2E/DX2                !
 ! R3    R(2,13)                 1.4181         estimate D2E/DX2                !
 ! R4    R(2,32)                 1.3494         estimate D2E/DX2                !
 ! R5    R(3,16)                 1.4409         estimate D2E/DX2                !
 ! R6    R(3,33)                 1.3533         estimate D2E/DX2                !
 ! R7    R(4,17)                 1.4478         estimate D2E/DX2                !
 ! R8    R(4,64)                 0.9709         estimate D2E/DX2                !
 ! R9    R(5,18)                 1.4321         estimate D2E/DX2                !
 ! R10   R(5,65)                 0.9723         estimate D2E/DX2                !
 ! R11   R(6,26)                 1.4173         estimate D2E/DX2                !
 ! R12   R(6,35)                 1.3691         estimate D2E/DX2                !
 ! R13   R(7,22)                 1.2383         estimate D2E/DX2                !
 ! R14   R(8,27)                 1.4342         estimate D2E/DX2                !
 ! R15   R(8,69)                 0.9695         estimate D2E/DX2                !
 ! R16   R(9,32)                 1.2234         estimate D2E/DX2                !
 ! R17   R(10,33)                1.2212         estimate D2E/DX2                !
 ! R18   R(11,35)                1.2233         estimate D2E/DX2                !
 ! R19   R(12,13)                1.5506         estimate D2E/DX2                !
 ! R20   R(12,14)                1.5966         estimate D2E/DX2                !
 ! R21   R(12,16)                1.5779         estimate D2E/DX2                !
 ! R22   R(12,43)                1.0827         estimate D2E/DX2                !
 ! R23   R(13,15)                1.5294         estimate D2E/DX2                !
 ! R24   R(13,21)                1.5388         estimate D2E/DX2                !
 ! R25   R(14,18)                1.5819         estimate D2E/DX2                !
 ! R26   R(14,22)                1.5774         estimate D2E/DX2                !
 ! R27   R(14,25)                1.5591         estimate D2E/DX2                !
 ! R28   R(15,19)                1.5123         estimate D2E/DX2                !
 ! R29   R(15,44)                1.0949         estimate D2E/DX2                !
 ! R30   R(16,17)                1.5889         estimate D2E/DX2                !
 ! R31   R(16,45)                1.0919         estimate D2E/DX2                !
 ! R32   R(17,20)                1.5639         estimate D2E/DX2                !
 ! R33   R(17,23)                1.5507         estimate D2E/DX2                !
 ! R34   R(18,19)                1.5274         estimate D2E/DX2                !
 ! R35   R(18,46)                1.0954         estimate D2E/DX2                !
 ! R36   R(19,47)                1.0971         estimate D2E/DX2                !
 ! R37   R(19,48)                1.0978         estimate D2E/DX2                !
 ! R38   R(20,24)                1.5411         estimate D2E/DX2                !
 ! R39   R(20,29)                1.5637         estimate D2E/DX2                !
 ! R40   R(20,30)                1.5523         estimate D2E/DX2                !
 ! R41   R(21,49)                1.0924         estimate D2E/DX2                !
 ! R42   R(21,50)                1.0911         estimate D2E/DX2                !
 ! R43   R(22,26)                1.5366         estimate D2E/DX2                !
 ! R44   R(23,27)                1.5376         estimate D2E/DX2                !
 ! R45   R(23,51)                1.0984         estimate D2E/DX2                !
 ! R46   R(23,52)                1.0966         estimate D2E/DX2                !
 ! R47   R(24,26)                1.5081         estimate D2E/DX2                !
 ! R48   R(24,28)                1.3612         estimate D2E/DX2                !
 ! R49   R(25,53)                1.0877         estimate D2E/DX2                !
 ! R50   R(25,54)                1.0978         estimate D2E/DX2                !
 ! R51   R(25,55)                1.0923         estimate D2E/DX2                !
 ! R52   R(26,56)                1.0947         estimate D2E/DX2                !
 ! R53   R(27,28)                1.5158         estimate D2E/DX2                !
 ! R54   R(27,57)                1.0962         estimate D2E/DX2                !
 ! R55   R(28,31)                1.5106         estimate D2E/DX2                !
 ! R56   R(29,58)                1.0979         estimate D2E/DX2                !
 ! R57   R(29,59)                1.093          estimate D2E/DX2                !
 ! R58   R(29,60)                1.0959         estimate D2E/DX2                !
 ! R59   R(30,61)                1.0956         estimate D2E/DX2                !
 ! R60   R(30,62)                1.0972         estimate D2E/DX2                !
 ! R61   R(30,63)                1.0889         estimate D2E/DX2                !
 ! R62   R(31,66)                1.0935         estimate D2E/DX2                !
 ! R63   R(31,67)                1.0959         estimate D2E/DX2                !
 ! R64   R(31,68)                1.095          estimate D2E/DX2                !
 ! R65   R(32,34)                1.4988         estimate D2E/DX2                !
 ! R66   R(33,36)                1.4848         estimate D2E/DX2                !
 ! R67   R(34,70)                1.094          estimate D2E/DX2                !
 ! R68   R(34,71)                1.0924         estimate D2E/DX2                !
 ! R69   R(34,72)                1.0926         estimate D2E/DX2                !
 ! R70   R(35,37)                1.4978         estimate D2E/DX2                !
 ! R71   R(36,38)                1.3797         estimate D2E/DX2                !
 ! R72   R(36,39)                1.3792         estimate D2E/DX2                !
 ! R73   R(37,73)                1.0937         estimate D2E/DX2                !
 ! R74   R(37,74)                1.0915         estimate D2E/DX2                !
 ! R75   R(37,75)                1.0932         estimate D2E/DX2                !
 ! R76   R(38,40)                1.395          estimate D2E/DX2                !
 ! R77   R(38,76)                1.0861         estimate D2E/DX2                !
 ! R78   R(39,41)                1.3937         estimate D2E/DX2                !
 ! R79   R(39,77)                1.0847         estimate D2E/DX2                !
 ! R80   R(40,42)                1.3942         estimate D2E/DX2                !
 ! R81   R(40,78)                1.0864         estimate D2E/DX2                !
 ! R82   R(41,42)                1.394          estimate D2E/DX2                !
 ! R83   R(41,79)                1.0864         estimate D2E/DX2                !
 ! R84   R(42,80)                1.0862         estimate D2E/DX2                !
 ! A1    A(15,1,21)             89.3242         estimate D2E/DX2                !
 ! A2    A(13,2,32)            114.0504         estimate D2E/DX2                !
 ! A3    A(16,3,33)            115.3879         estimate D2E/DX2                !
 ! A4    A(17,4,64)            109.4081         estimate D2E/DX2                !
 ! A5    A(18,5,65)            108.0103         estimate D2E/DX2                !
 ! A6    A(26,6,35)            115.9193         estimate D2E/DX2                !
 ! A7    A(27,8,69)            107.7753         estimate D2E/DX2                !
 ! A8    A(13,12,14)           112.8495         estimate D2E/DX2                !
 ! A9    A(13,12,16)           110.9563         estimate D2E/DX2                !
 ! A10   A(13,12,43)           101.9478         estimate D2E/DX2                !
 ! A11   A(14,12,16)           117.0869         estimate D2E/DX2                !
 ! A12   A(14,12,43)           104.7977         estimate D2E/DX2                !
 ! A13   A(16,12,43)           107.7158         estimate D2E/DX2                !
 ! A14   A(2,13,12)            107.0202         estimate D2E/DX2                !
 ! A15   A(2,13,15)            112.357          estimate D2E/DX2                !
 ! A16   A(2,13,21)            112.1826         estimate D2E/DX2                !
 ! A17   A(12,13,15)           115.6349         estimate D2E/DX2                !
 ! A18   A(12,13,21)           124.4854         estimate D2E/DX2                !
 ! A19   A(15,13,21)            83.6387         estimate D2E/DX2                !
 ! A20   A(12,14,18)           111.9689         estimate D2E/DX2                !
 ! A21   A(12,14,22)           114.6091         estimate D2E/DX2                !
 ! A22   A(12,14,25)           111.4281         estimate D2E/DX2                !
 ! A23   A(18,14,22)           103.791          estimate D2E/DX2                !
 ! A24   A(18,14,25)           109.7518         estimate D2E/DX2                !
 ! A25   A(22,14,25)           104.79           estimate D2E/DX2                !
 ! A26   A(1,15,13)             90.9982         estimate D2E/DX2                !
 ! A27   A(1,15,19)            114.1803         estimate D2E/DX2                !
 ! A28   A(1,15,44)            108.3071         estimate D2E/DX2                !
 ! A29   A(13,15,19)           115.6267         estimate D2E/DX2                !
 ! A30   A(13,15,44)           119.9692         estimate D2E/DX2                !
 ! A31   A(19,15,44)           106.9652         estimate D2E/DX2                !
 ! A32   A(3,16,12)            110.794          estimate D2E/DX2                !
 ! A33   A(3,16,17)            107.0995         estimate D2E/DX2                !
 ! A34   A(3,16,45)            103.4066         estimate D2E/DX2                !
 ! A35   A(12,16,17)           120.0794         estimate D2E/DX2                !
 ! A36   A(12,16,45)           107.1665         estimate D2E/DX2                !
 ! A37   A(17,16,45)           106.993          estimate D2E/DX2                !
 ! A38   A(4,17,16)            104.7835         estimate D2E/DX2                !
 ! A39   A(4,17,20)            107.3178         estimate D2E/DX2                !
 ! A40   A(4,17,23)            104.9616         estimate D2E/DX2                !
 ! A41   A(16,17,20)           114.3643         estimate D2E/DX2                !
 ! A42   A(16,17,23)           115.2504         estimate D2E/DX2                !
 ! A43   A(20,17,23)           109.3189         estimate D2E/DX2                !
 ! A44   A(5,18,14)            111.4411         estimate D2E/DX2                !
 ! A45   A(5,18,19)            108.3908         estimate D2E/DX2                !
 ! A46   A(5,18,46)            103.7371         estimate D2E/DX2                !
 ! A47   A(14,18,19)           116.3814         estimate D2E/DX2                !
 ! A48   A(14,18,46)           109.9169         estimate D2E/DX2                !
 ! A49   A(19,18,46)           106.1008         estimate D2E/DX2                !
 ! A50   A(15,19,18)           112.6502         estimate D2E/DX2                !
 ! A51   A(15,19,47)           108.7515         estimate D2E/DX2                !
 ! A52   A(15,19,48)           109.477          estimate D2E/DX2                !
 ! A53   A(18,19,47)           109.1185         estimate D2E/DX2                !
 ! A54   A(18,19,48)           109.7902         estimate D2E/DX2                !
 ! A55   A(47,19,48)           106.8807         estimate D2E/DX2                !
 ! A56   A(17,20,24)           105.8098         estimate D2E/DX2                !
 ! A57   A(17,20,29)           112.4563         estimate D2E/DX2                !
 ! A58   A(17,20,30)           109.9706         estimate D2E/DX2                !
 ! A59   A(24,20,29)           106.9611         estimate D2E/DX2                !
 ! A60   A(24,20,30)           119.1881         estimate D2E/DX2                !
 ! A61   A(29,20,30)           102.5623         estimate D2E/DX2                !
 ! A62   A(1,21,13)             90.5322         estimate D2E/DX2                !
 ! A63   A(1,21,49)            112.5646         estimate D2E/DX2                !
 ! A64   A(1,21,50)            111.3556         estimate D2E/DX2                !
 ! A65   A(13,21,49)           115.248          estimate D2E/DX2                !
 ! A66   A(13,21,50)           121.2589         estimate D2E/DX2                !
 ! A67   A(49,21,50)           105.4094         estimate D2E/DX2                !
 ! A68   A(7,22,14)            120.4181         estimate D2E/DX2                !
 ! A69   A(7,22,26)            118.0921         estimate D2E/DX2                !
 ! A70   A(14,22,26)           121.1556         estimate D2E/DX2                !
 ! A71   A(17,23,27)           115.836          estimate D2E/DX2                !
 ! A72   A(17,23,51)           109.1833         estimate D2E/DX2                !
 ! A73   A(17,23,52)           110.2944         estimate D2E/DX2                !
 ! A74   A(27,23,51)           107.1239         estimate D2E/DX2                !
 ! A75   A(27,23,52)           110.4377         estimate D2E/DX2                !
 ! A76   A(51,23,52)           103.1431         estimate D2E/DX2                !
 ! A77   A(20,24,26)           120.6293         estimate D2E/DX2                !
 ! A78   A(20,24,28)           119.3832         estimate D2E/DX2                !
 ! A79   A(26,24,28)           119.2634         estimate D2E/DX2                !
 ! A80   A(14,25,53)           113.402          estimate D2E/DX2                !
 ! A81   A(14,25,54)           111.5694         estimate D2E/DX2                !
 ! A82   A(14,25,55)           112.6912         estimate D2E/DX2                !
 ! A83   A(53,25,54)           105.5341         estimate D2E/DX2                !
 ! A84   A(53,25,55)           108.0814         estimate D2E/DX2                !
 ! A85   A(54,25,55)           104.9706         estimate D2E/DX2                !
 ! A86   A(6,26,22)            111.5224         estimate D2E/DX2                !
 ! A87   A(6,26,24)            110.6767         estimate D2E/DX2                !
 ! A88   A(6,26,56)            106.785          estimate D2E/DX2                !
 ! A89   A(22,26,24)           112.7858         estimate D2E/DX2                !
 ! A90   A(22,26,56)           104.0127         estimate D2E/DX2                !
 ! A91   A(24,26,56)           110.7043         estimate D2E/DX2                !
 ! A92   A(8,27,23)            107.0348         estimate D2E/DX2                !
 ! A93   A(8,27,28)            108.3926         estimate D2E/DX2                !
 ! A94   A(8,27,57)            106.1245         estimate D2E/DX2                !
 ! A95   A(23,27,28)           116.396          estimate D2E/DX2                !
 ! A96   A(23,27,57)           109.3919         estimate D2E/DX2                !
 ! A97   A(28,27,57)           109.0066         estimate D2E/DX2                !
 ! A98   A(24,28,27)           121.7039         estimate D2E/DX2                !
 ! A99   A(24,28,31)           123.8736         estimate D2E/DX2                !
 ! A100  A(27,28,31)           114.2324         estimate D2E/DX2                !
 ! A101  A(20,29,58)           110.1281         estimate D2E/DX2                !
 ! A102  A(20,29,59)           114.04           estimate D2E/DX2                !
 ! A103  A(20,29,60)           112.1372         estimate D2E/DX2                !
 ! A104  A(58,29,59)           106.2391         estimate D2E/DX2                !
 ! A105  A(58,29,60)           106.8064         estimate D2E/DX2                !
 ! A106  A(59,29,60)           107.0672         estimate D2E/DX2                !
 ! A107  A(20,30,61)           111.1446         estimate D2E/DX2                !
 ! A108  A(20,30,62)           111.2693         estimate D2E/DX2                !
 ! A109  A(20,30,63)           113.9486         estimate D2E/DX2                !
 ! A110  A(61,30,62)           106.5394         estimate D2E/DX2                !
 ! A111  A(61,30,63)           107.9475         estimate D2E/DX2                !
 ! A112  A(62,30,63)           105.5684         estimate D2E/DX2                !
 ! A113  A(28,31,66)           110.7752         estimate D2E/DX2                !
 ! A114  A(28,31,67)           110.1419         estimate D2E/DX2                !
 ! A115  A(28,31,68)           112.4945         estimate D2E/DX2                !
 ! A116  A(66,31,67)           108.4336         estimate D2E/DX2                !
 ! A117  A(66,31,68)           109.0381         estimate D2E/DX2                !
 ! A118  A(67,31,68)           105.7654         estimate D2E/DX2                !
 ! A119  A(2,32,9)             127.7173         estimate D2E/DX2                !
 ! A120  A(2,32,34)            108.2761         estimate D2E/DX2                !
 ! A121  A(9,32,34)            124.0066         estimate D2E/DX2                !
 ! A122  A(3,33,10)            126.6692         estimate D2E/DX2                !
 ! A123  A(3,33,36)            110.1041         estimate D2E/DX2                !
 ! A124  A(10,33,36)           123.2265         estimate D2E/DX2                !
 ! A125  A(32,34,70)           109.1417         estimate D2E/DX2                !
 ! A126  A(32,34,71)           109.7579         estimate D2E/DX2                !
 ! A127  A(32,34,72)           110.559          estimate D2E/DX2                !
 ! A128  A(70,34,71)           108.5734         estimate D2E/DX2                !
 ! A129  A(70,34,72)           107.9249         estimate D2E/DX2                !
 ! A130  A(71,34,72)           110.8262         estimate D2E/DX2                !
 ! A131  A(6,35,11)            125.95           estimate D2E/DX2                !
 ! A132  A(6,35,37)            110.0177         estimate D2E/DX2                !
 ! A133  A(11,35,37)           124.0323         estimate D2E/DX2                !
 ! A134  A(33,36,38)           118.9063         estimate D2E/DX2                !
 ! A135  A(33,36,39)           118.9477         estimate D2E/DX2                !
 ! A136  A(38,36,39)           122.146          estimate D2E/DX2                !
 ! A137  A(35,37,73)           109.8158         estimate D2E/DX2                !
 ! A138  A(35,37,74)           109.8235         estimate D2E/DX2                !
 ! A139  A(35,37,75)           109.4313         estimate D2E/DX2                !
 ! A140  A(73,37,74)           110.5516         estimate D2E/DX2                !
 ! A141  A(73,37,75)           108.4138         estimate D2E/DX2                !
 ! A142  A(74,37,75)           108.7736         estimate D2E/DX2                !
 ! A143  A(36,38,40)           118.9221         estimate D2E/DX2                !
 ! A144  A(36,38,76)           121.7363         estimate D2E/DX2                !
 ! A145  A(40,38,76)           119.3409         estimate D2E/DX2                !
 ! A146  A(36,39,41)           118.9304         estimate D2E/DX2                !
 ! A147  A(36,39,77)           122.5525         estimate D2E/DX2                !
 ! A148  A(41,39,77)           118.4951         estimate D2E/DX2                !
 ! A149  A(38,40,42)           119.9663         estimate D2E/DX2                !
 ! A150  A(38,40,78)           119.9898         estimate D2E/DX2                !
 ! A151  A(42,40,78)           120.0438         estimate D2E/DX2                !
 ! A152  A(39,41,42)           120.0385         estimate D2E/DX2                !
 ! A153  A(39,41,79)           119.9802         estimate D2E/DX2                !
 ! A154  A(42,41,79)           119.9803         estimate D2E/DX2                !
 ! A155  A(40,42,41)           119.9967         estimate D2E/DX2                !
 ! A156  A(40,42,80)           119.9989         estimate D2E/DX2                !
 ! A157  A(41,42,80)           120.0043         estimate D2E/DX2                !
 ! D1    D(21,1,15,13)          18.116          estimate D2E/DX2                !
 ! D2    D(21,1,15,19)         136.932          estimate D2E/DX2                !
 ! D3    D(21,1,15,44)        -104.0254         estimate D2E/DX2                !
 ! D4    D(15,1,21,13)         -17.9991         estimate D2E/DX2                !
 ! D5    D(15,1,21,49)        -135.7595         estimate D2E/DX2                !
 ! D6    D(15,1,21,50)         106.1134         estimate D2E/DX2                !
 ! D7    D(32,2,13,12)         160.1266         estimate D2E/DX2                !
 ! D8    D(32,2,13,15)          32.1652         estimate D2E/DX2                !
 ! D9    D(32,2,13,21)         -60.0309         estimate D2E/DX2                !
 ! D10   D(13,2,32,9)           60.0103         estimate D2E/DX2                !
 ! D11   D(13,2,32,34)        -119.9493         estimate D2E/DX2                !
 ! D12   D(33,3,16,12)         174.8248         estimate D2E/DX2                !
 ! D13   D(33,3,16,17)         -52.5082         estimate D2E/DX2                !
 ! D14   D(33,3,16,45)          60.3009         estimate D2E/DX2                !
 ! D15   D(16,3,33,10)         -30.0649         estimate D2E/DX2                !
 ! D16   D(16,3,33,36)         150.0526         estimate D2E/DX2                !
 ! D17   D(64,4,17,16)        -171.8674         estimate D2E/DX2                !
 ! D18   D(64,4,17,20)          66.1807         estimate D2E/DX2                !
 ! D19   D(64,4,17,23)         -50.052          estimate D2E/DX2                !
 ! D20   D(65,5,18,14)          76.8772         estimate D2E/DX2                !
 ! D21   D(65,5,18,19)         -52.4425         estimate D2E/DX2                !
 ! D22   D(65,5,18,46)        -164.9086         estimate D2E/DX2                !
 ! D23   D(35,6,26,22)          53.5758         estimate D2E/DX2                !
 ! D24   D(35,6,26,24)        -179.9963         estimate D2E/DX2                !
 ! D25   D(35,6,26,56)         -59.4298         estimate D2E/DX2                !
 ! D26   D(26,6,35,11)          29.9066         estimate D2E/DX2                !
 ! D27   D(26,6,35,37)        -150.0942         estimate D2E/DX2                !
 ! D28   D(69,8,27,23)         -57.552          estimate D2E/DX2                !
 ! D29   D(69,8,27,28)          68.7388         estimate D2E/DX2                !
 ! D30   D(69,8,27,57)        -174.2996         estimate D2E/DX2                !
 ! D31   D(14,12,13,2)        -165.6903         estimate D2E/DX2                !
 ! D32   D(14,12,13,15)        -39.6661         estimate D2E/DX2                !
 ! D33   D(14,12,13,21)         60.7345         estimate D2E/DX2                !
 ! D34   D(16,12,13,2)          60.6401         estimate D2E/DX2                !
 ! D35   D(16,12,13,15)       -173.3357         estimate D2E/DX2                !
 ! D36   D(16,12,13,21)        -72.935          estimate D2E/DX2                !
 ! D37   D(43,12,13,2)         -53.8229         estimate D2E/DX2                !
 ! D38   D(43,12,13,15)         72.2013         estimate D2E/DX2                !
 ! D39   D(43,12,13,21)        172.6019         estimate D2E/DX2                !
 ! D40   D(13,12,14,18)         46.6206         estimate D2E/DX2                !
 ! D41   D(13,12,14,22)        164.4923         estimate D2E/DX2                !
 ! D42   D(13,12,14,25)        -76.7316         estimate D2E/DX2                !
 ! D43   D(16,12,14,18)        177.2704         estimate D2E/DX2                !
 ! D44   D(16,12,14,22)        -64.8579         estimate D2E/DX2                !
 ! D45   D(16,12,14,25)         53.9183         estimate D2E/DX2                !
 ! D46   D(43,12,14,18)        -63.4801         estimate D2E/DX2                !
 ! D47   D(43,12,14,22)         54.3915         estimate D2E/DX2                !
 ! D48   D(43,12,14,25)        173.1677         estimate D2E/DX2                !
 ! D49   D(13,12,16,3)          -5.7453         estimate D2E/DX2                !
 ! D50   D(13,12,16,17)       -131.4363         estimate D2E/DX2                !
 ! D51   D(13,12,16,45)        106.3957         estimate D2E/DX2                !
 ! D52   D(14,12,16,3)        -137.2681         estimate D2E/DX2                !
 ! D53   D(14,12,16,17)         97.0409         estimate D2E/DX2                !
 ! D54   D(14,12,16,45)        -25.1272         estimate D2E/DX2                !
 ! D55   D(43,12,16,3)         105.0521         estimate D2E/DX2                !
 ! D56   D(43,12,16,17)        -20.6389         estimate D2E/DX2                !
 ! D57   D(43,12,16,45)       -142.8069         estimate D2E/DX2                !
 ! D58   D(2,13,15,1)         -128.626          estimate D2E/DX2                !
 ! D59   D(2,13,15,19)         113.811          estimate D2E/DX2                !
 ! D60   D(2,13,15,44)         -16.7442         estimate D2E/DX2                !
 ! D61   D(12,13,15,1)         108.1152         estimate D2E/DX2                !
 ! D62   D(12,13,15,19)         -9.4478         estimate D2E/DX2                !
 ! D63   D(12,13,15,44)       -140.003          estimate D2E/DX2                !
 ! D64   D(21,13,15,1)         -17.2232         estimate D2E/DX2                !
 ! D65   D(21,13,15,19)       -134.7862         estimate D2E/DX2                !
 ! D66   D(21,13,15,44)         94.6586         estimate D2E/DX2                !
 ! D67   D(2,13,21,1)          128.7766         estimate D2E/DX2                !
 ! D68   D(2,13,21,49)        -115.8414         estimate D2E/DX2                !
 ! D69   D(2,13,21,50)          13.204          estimate D2E/DX2                !
 ! D70   D(12,13,21,1)         -99.6504         estimate D2E/DX2                !
 ! D71   D(12,13,21,49)         15.7316         estimate D2E/DX2                !
 ! D72   D(12,13,21,50)        144.777          estimate D2E/DX2                !
 ! D73   D(15,13,21,1)          17.1923         estimate D2E/DX2                !
 ! D74   D(15,13,21,49)        132.5743         estimate D2E/DX2                !
 ! D75   D(15,13,21,50)        -98.3803         estimate D2E/DX2                !
 ! D76   D(12,14,18,5)        -130.6884         estimate D2E/DX2                !
 ! D77   D(12,14,18,19)         -5.7183         estimate D2E/DX2                !
 ! D78   D(12,14,18,46)        114.8774         estimate D2E/DX2                !
 ! D79   D(22,14,18,5)         105.1606         estimate D2E/DX2                !
 ! D80   D(22,14,18,19)       -129.8693         estimate D2E/DX2                !
 ! D81   D(22,14,18,46)         -9.2737         estimate D2E/DX2                !
 ! D82   D(25,14,18,5)          -6.3963         estimate D2E/DX2                !
 ! D83   D(25,14,18,19)        118.5738         estimate D2E/DX2                !
 ! D84   D(25,14,18,46)       -120.8305         estimate D2E/DX2                !
 ! D85   D(12,14,22,7)         145.0027         estimate D2E/DX2                !
 ! D86   D(12,14,22,26)        -41.7624         estimate D2E/DX2                !
 ! D87   D(18,14,22,7)         -92.5775         estimate D2E/DX2                !
 ! D88   D(18,14,22,26)         80.6574         estimate D2E/DX2                !
 ! D89   D(25,14,22,7)          22.5548         estimate D2E/DX2                !
 ! D90   D(25,14,22,26)       -164.2103         estimate D2E/DX2                !
 ! D91   D(12,14,25,53)         62.7929         estimate D2E/DX2                !
 ! D92   D(12,14,25,54)       -178.2029         estimate D2E/DX2                !
 ! D93   D(12,14,25,55)        -60.4039         estimate D2E/DX2                !
 ! D94   D(18,14,25,53)        -61.8129         estimate D2E/DX2                !
 ! D95   D(18,14,25,54)         57.1913         estimate D2E/DX2                !
 ! D96   D(18,14,25,55)        174.9903         estimate D2E/DX2                !
 ! D97   D(22,14,25,53)       -172.7146         estimate D2E/DX2                !
 ! D98   D(22,14,25,54)        -53.7105         estimate D2E/DX2                !
 ! D99   D(22,14,25,55)         64.0885         estimate D2E/DX2                !
 ! D100  D(1,15,19,18)         -52.114          estimate D2E/DX2                !
 ! D101  D(1,15,19,47)        -173.2085         estimate D2E/DX2                !
 ! D102  D(1,15,19,48)          70.3468         estimate D2E/DX2                !
 ! D103  D(13,15,19,18)         51.5699         estimate D2E/DX2                !
 ! D104  D(13,15,19,47)        -69.5246         estimate D2E/DX2                !
 ! D105  D(13,15,19,48)        174.0307         estimate D2E/DX2                !
 ! D106  D(44,15,19,18)       -171.9131         estimate D2E/DX2                !
 ! D107  D(44,15,19,47)         66.9924         estimate D2E/DX2                !
 ! D108  D(44,15,19,48)        -49.4523         estimate D2E/DX2                !
 ! D109  D(3,16,17,4)           58.4314         estimate D2E/DX2                !
 ! D110  D(3,16,17,20)         175.6556         estimate D2E/DX2                !
 ! D111  D(3,16,17,23)         -56.3833         estimate D2E/DX2                !
 ! D112  D(12,16,17,4)        -174.1661         estimate D2E/DX2                !
 ! D113  D(12,16,17,20)        -56.9419         estimate D2E/DX2                !
 ! D114  D(12,16,17,23)         71.0192         estimate D2E/DX2                !
 ! D115  D(45,16,17,4)         -51.9134         estimate D2E/DX2                !
 ! D116  D(45,16,17,20)         65.3108         estimate D2E/DX2                !
 ! D117  D(45,16,17,23)       -166.7281         estimate D2E/DX2                !
 ! D118  D(4,17,20,24)        -176.0796         estimate D2E/DX2                !
 ! D119  D(4,17,20,29)         -59.6496         estimate D2E/DX2                !
 ! D120  D(4,17,20,30)          53.9661         estimate D2E/DX2                !
 ! D121  D(16,17,20,24)         68.1592         estimate D2E/DX2                !
 ! D122  D(16,17,20,29)       -175.4109         estimate D2E/DX2                !
 ! D123  D(16,17,20,30)        -61.7951         estimate D2E/DX2                !
 ! D124  D(23,17,20,24)        -62.759          estimate D2E/DX2                !
 ! D125  D(23,17,20,29)         53.6709         estimate D2E/DX2                !
 ! D126  D(23,17,20,30)        167.2867         estimate D2E/DX2                !
 ! D127  D(4,17,23,27)         157.879          estimate D2E/DX2                !
 ! D128  D(4,17,23,51)          36.8931         estimate D2E/DX2                !
 ! D129  D(4,17,23,52)         -75.772          estimate D2E/DX2                !
 ! D130  D(16,17,23,27)        -87.4088         estimate D2E/DX2                !
 ! D131  D(16,17,23,51)        151.6053         estimate D2E/DX2                !
 ! D132  D(16,17,23,52)         38.9401         estimate D2E/DX2                !
 ! D133  D(20,17,23,27)         43.0329         estimate D2E/DX2                !
 ! D134  D(20,17,23,51)        -77.953          estimate D2E/DX2                !
 ! D135  D(20,17,23,52)        169.3818         estimate D2E/DX2                !
 ! D136  D(5,18,19,15)          83.7314         estimate D2E/DX2                !
 ! D137  D(5,18,19,47)        -155.3837         estimate D2E/DX2                !
 ! D138  D(5,18,19,48)         -38.5531         estimate D2E/DX2                !
 ! D139  D(14,18,19,15)        -42.7748         estimate D2E/DX2                !
 ! D140  D(14,18,19,47)         78.1101         estimate D2E/DX2                !
 ! D141  D(14,18,19,48)       -165.0593         estimate D2E/DX2                !
 ! D142  D(46,18,19,15)       -165.3872         estimate D2E/DX2                !
 ! D143  D(46,18,19,47)        -44.5023         estimate D2E/DX2                !
 ! D144  D(46,18,19,48)         72.3282         estimate D2E/DX2                !
 ! D145  D(17,20,24,26)       -119.3392         estimate D2E/DX2                !
 ! D146  D(17,20,24,28)         50.8407         estimate D2E/DX2                !
 ! D147  D(29,20,24,26)        120.5676         estimate D2E/DX2                !
 ! D148  D(29,20,24,28)        -69.2525         estimate D2E/DX2                !
 ! D149  D(30,20,24,26)          5.047          estimate D2E/DX2                !
 ! D150  D(30,20,24,28)        175.2269         estimate D2E/DX2                !
 ! D151  D(17,20,29,58)       -179.3519         estimate D2E/DX2                !
 ! D152  D(17,20,29,59)        -60.037          estimate D2E/DX2                !
 ! D153  D(17,20,29,60)         61.8611         estimate D2E/DX2                !
 ! D154  D(24,20,29,58)        -63.6135         estimate D2E/DX2                !
 ! D155  D(24,20,29,59)         55.7014         estimate D2E/DX2                !
 ! D156  D(24,20,29,60)        177.5995         estimate D2E/DX2                !
 ! D157  D(30,20,29,58)         62.5665         estimate D2E/DX2                !
 ! D158  D(30,20,29,59)       -178.1186         estimate D2E/DX2                !
 ! D159  D(30,20,29,60)        -56.2205         estimate D2E/DX2                !
 ! D160  D(17,20,30,61)        173.1966         estimate D2E/DX2                !
 ! D161  D(17,20,30,62)        -68.2428         estimate D2E/DX2                !
 ! D162  D(17,20,30,63)         50.9683         estimate D2E/DX2                !
 ! D163  D(24,20,30,61)         50.8507         estimate D2E/DX2                !
 ! D164  D(24,20,30,62)        169.4113         estimate D2E/DX2                !
 ! D165  D(24,20,30,63)        -71.3776         estimate D2E/DX2                !
 ! D166  D(29,20,30,61)        -66.9778         estimate D2E/DX2                !
 ! D167  D(29,20,30,62)         51.5828         estimate D2E/DX2                !
 ! D168  D(29,20,30,63)        170.7939         estimate D2E/DX2                !
 ! D169  D(7,22,26,6)            1.1107         estimate D2E/DX2                !
 ! D170  D(7,22,26,24)        -124.1535         estimate D2E/DX2                !
 ! D171  D(7,22,26,56)         115.8421         estimate D2E/DX2                !
 ! D172  D(14,22,26,6)        -172.2771         estimate D2E/DX2                !
 ! D173  D(14,22,26,24)         62.4588         estimate D2E/DX2                !
 ! D174  D(14,22,26,56)        -57.5456         estimate D2E/DX2                !
 ! D175  D(17,23,27,8)         115.0334         estimate D2E/DX2                !
 ! D176  D(17,23,27,28)         -6.3314         estimate D2E/DX2                !
 ! D177  D(17,23,27,57)       -130.3977         estimate D2E/DX2                !
 ! D178  D(51,23,27,8)        -122.8803         estimate D2E/DX2                !
 ! D179  D(51,23,27,28)        115.755          estimate D2E/DX2                !
 ! D180  D(51,23,27,57)         -8.3113         estimate D2E/DX2                !
 ! D181  D(52,23,27,8)         -11.2432         estimate D2E/DX2                !
 ! D182  D(52,23,27,28)       -132.6079         estimate D2E/DX2                !
 ! D183  D(52,23,27,57)        103.3257         estimate D2E/DX2                !
 ! D184  D(20,24,26,6)         -78.8855         estimate D2E/DX2                !
 ! D185  D(20,24,26,22)         46.8362         estimate D2E/DX2                !
 ! D186  D(20,24,26,56)        162.9103         estimate D2E/DX2                !
 ! D187  D(28,24,26,6)         110.9229         estimate D2E/DX2                !
 ! D188  D(28,24,26,22)       -123.3553         estimate D2E/DX2                !
 ! D189  D(28,24,26,56)         -7.2813         estimate D2E/DX2                !
 ! D190  D(20,24,28,27)        -14.5299         estimate D2E/DX2                !
 ! D191  D(20,24,28,31)        170.7742         estimate D2E/DX2                !
 ! D192  D(26,24,28,27)        155.7853         estimate D2E/DX2                !
 ! D193  D(26,24,28,31)        -18.9106         estimate D2E/DX2                !
 ! D194  D(8,27,28,24)        -130.1794         estimate D2E/DX2                !
 ! D195  D(8,27,28,31)          44.9924         estimate D2E/DX2                !
 ! D196  D(23,27,28,24)         -9.5364         estimate D2E/DX2                !
 ! D197  D(23,27,28,31)        165.6354         estimate D2E/DX2                !
 ! D198  D(57,27,28,24)        114.7276         estimate D2E/DX2                !
 ! D199  D(57,27,28,31)        -70.1006         estimate D2E/DX2                !
 ! D200  D(24,28,31,66)         95.797          estimate D2E/DX2                !
 ! D201  D(24,28,31,67)       -144.2447         estimate D2E/DX2                !
 ! D202  D(24,28,31,68)        -26.5271         estimate D2E/DX2                !
 ! D203  D(27,28,31,66)        -79.2553         estimate D2E/DX2                !
 ! D204  D(27,28,31,67)         40.703          estimate D2E/DX2                !
 ! D205  D(27,28,31,68)        158.4206         estimate D2E/DX2                !
 ! D206  D(2,32,34,70)         172.3159         estimate D2E/DX2                !
 ! D207  D(2,32,34,71)         -68.8075         estimate D2E/DX2                !
 ! D208  D(2,32,34,72)          53.7529         estimate D2E/DX2                !
 ! D209  D(9,32,34,70)          -7.6456         estimate D2E/DX2                !
 ! D210  D(9,32,34,71)         111.231          estimate D2E/DX2                !
 ! D211  D(9,32,34,72)        -126.2086         estimate D2E/DX2                !
 ! D212  D(3,33,36,38)        -150.0939         estimate D2E/DX2                !
 ! D213  D(3,33,36,39)          29.8509         estimate D2E/DX2                !
 ! D214  D(10,33,36,38)         30.0188         estimate D2E/DX2                !
 ! D215  D(10,33,36,39)       -150.0365         estimate D2E/DX2                !
 ! D216  D(6,35,37,73)          58.4994         estimate D2E/DX2                !
 ! D217  D(6,35,37,74)         -63.273          estimate D2E/DX2                !
 ! D218  D(6,35,37,75)         177.3909         estimate D2E/DX2                !
 ! D219  D(11,35,37,73)       -121.5014         estimate D2E/DX2                !
 ! D220  D(11,35,37,74)        116.7262         estimate D2E/DX2                !
 ! D221  D(11,35,37,75)         -2.6099         estimate D2E/DX2                !
 ! D222  D(33,36,38,40)        179.9672         estimate D2E/DX2                !
 ! D223  D(33,36,38,76)          0.2731         estimate D2E/DX2                !
 ! D224  D(39,36,38,40)          0.0243         estimate D2E/DX2                !
 ! D225  D(39,36,38,76)       -179.6699         estimate D2E/DX2                !
 ! D226  D(33,36,39,41)       -179.9925         estimate D2E/DX2                !
 ! D227  D(33,36,39,77)          1.7411         estimate D2E/DX2                !
 ! D228  D(38,36,39,41)         -0.0496         estimate D2E/DX2                !
 ! D229  D(38,36,39,77)       -178.316          estimate D2E/DX2                !
 ! D230  D(36,38,40,42)         -0.0041         estimate D2E/DX2                !
 ! D231  D(36,38,40,78)       -179.9292         estimate D2E/DX2                !
 ! D232  D(76,38,40,42)        179.6976         estimate D2E/DX2                !
 ! D233  D(76,38,40,78)         -0.2276         estimate D2E/DX2                !
 ! D234  D(36,39,41,42)          0.0546         estimate D2E/DX2                !
 ! D235  D(36,39,41,79)       -179.586          estimate D2E/DX2                !
 ! D236  D(77,39,41,42)        178.3919         estimate D2E/DX2                !
 ! D237  D(77,39,41,79)         -1.2486         estimate D2E/DX2                !
 ! D238  D(38,40,42,41)          0.0101         estimate D2E/DX2                !
 ! D239  D(38,40,42,80)        179.8692         estimate D2E/DX2                !
 ! D240  D(78,40,42,41)        179.9352         estimate D2E/DX2                !
 ! D241  D(78,40,42,80)         -0.2057         estimate D2E/DX2                !
 ! D242  D(39,41,42,40)         -0.0357         estimate D2E/DX2                !
 ! D243  D(39,41,42,80)       -179.8948         estimate D2E/DX2                !
 ! D244  D(79,41,42,40)        179.6049         estimate D2E/DX2                !
 ! D245  D(79,41,42,80)         -0.2542         estimate D2E/DX2                !
 --------------------------------------------------------------------------------
 Trust Radius=3.00D-01 FncErr=1.00D-07 GrdErr=1.00D-07 EigMax=2.50D+02 EigMin=1.00D-04
 Number of steps in this run=    480 maximum allowed number of steps=    480.
 GradGradGradGradGradGradGradGradGradGradGradGradGradGradGradGradGradGrad

 Stoichiometry    C31H38O11
 Framework group  C1[X(C31H38O11)]
 Deg. of freedom   234
 Full point group                 C1      NOp   1
 Largest Abelian subgroup         C1      NOp   1
 Largest concise Abelian subgroup C1      NOp   1
                         Standard orientation:                         
 ---------------------------------------------------------------------
 Center     Atomic      Atomic             Coordinates (Angstroms)
 Number     Number       Type             X           Y           Z
 ---------------------------------------------------------------------
      1          8           0       -0.152920    3.822274   -1.215016
      2          8           0       -1.655173    1.673662    0.715365
      3          8           0       -1.886538   -0.201285   -0.952117
      4          8           0       -1.070363   -2.817338   -0.906190
      5          8           0        2.741418    3.327712   -1.505111
      6          8           0        4.201927   -1.447422    0.552830
      7          8           0        3.631637   -0.210525   -1.719634
      8          8           0       -0.816680   -0.304923    3.032130
      9          8           0       -2.927250    3.600794    0.641109
     10          8           0       -2.267591   -2.008228   -2.325654
     11          8           0        5.621745    0.355793    0.288821
     12          6           0        0.306315    0.779453   -0.312015
     13          6           0       -0.631394    2.009851   -0.206502
     14          6           0        1.695985    1.118080   -1.021334
     15          6           0        0.051028    3.334140    0.139407
     16          6           0       -0.478592   -0.484976   -0.836255
     17          6           0       -0.342951   -1.876214   -0.080738
     18          6           0        2.344030    2.443594   -0.450917
     19          6           0        1.503187    3.234055    0.549709
     20          6           0        1.124408   -2.402772    0.043048
     21          6           0       -1.171271    2.799777   -1.411738
     22          6           0        2.820445    0.031114   -0.815746
     23          6           0       -1.031543   -1.945241    1.306966
     24          6           0        1.838257   -1.434141    1.005979
     25          6           0        1.532817    1.234430   -2.567549
     26          6           0        3.036656   -0.640707    0.549152
     27          6           0       -0.182799   -1.476322    2.500203
     28          6           0        1.266810   -1.144299    2.206953
     29          6           0        1.196218   -3.824574    0.689958
     30          6           0        1.722103   -2.643808   -1.369177
     31          6           0        1.961334   -0.375340    3.306103
     32          6           0       -2.295968    2.739796    1.238496
     33          6           0       -2.634267   -1.188240   -1.498252
     34          6           0       -2.112621    2.715091    2.725864
     35          6           0        5.357733   -0.831070    0.154574
     36          6           0       -4.012602   -1.148581   -0.947501
     37          6           0        6.277005   -1.827509   -0.482232
     38          6           0       -4.725397   -2.325732   -0.848616
     39          6           0       -4.538191    0.063104   -0.550462
     40          6           0       -6.020168   -2.288953   -0.330570
     41          6           0       -5.831947    0.099890   -0.033401
     42          6           0       -6.572952   -1.075633    0.077038
     43          1           0        0.561223    0.602299    0.725248
     44          1           0       -0.429415    4.032297    0.832578
     45          1           0       -0.168010   -0.651455   -1.869680
     46          1           0        3.284033    2.209337    0.060324
     47          1           0        1.559646    2.746458    1.530822
     48          1           0        1.919760    4.242509    0.670484
     49          1           0       -1.079512    2.297052   -2.377276
     50          1           0       -2.173689    3.230549   -1.403270
     51          1           0       -1.330380   -2.982410    1.510393
     52          1           0       -1.988418   -1.410007    1.283817
     53          1           0        0.873135    2.043612   -2.872664
     54          1           0        2.492693    1.435866   -3.060624
     55          1           0        1.169681    0.310713   -3.023634
     56          1           0        3.229035    0.195691    1.228782
     57          1           0       -0.222611   -2.231140    3.294149
     58          1           0        2.241414   -4.151421    0.768860
     59          1           0        0.782985   -3.875330    1.700530
     60          1           0        0.673010   -4.578021    0.090303
     61          1           0        2.786238   -2.897537   -1.309902
     62          1           0        1.228087   -3.484510   -1.872285
     63          1           0        1.616379   -1.796134   -2.044459
     64          1           0       -1.140514   -3.666929   -0.441587
     65          1           0        1.943205    3.763762   -1.848686
     66          1           0        1.695157    0.684515    3.265874
     67          1           0        1.667977   -0.769369    4.285756
     68          1           0        3.051114   -0.471890    3.260790
     69          1           0       -0.876226    0.349069    2.318951
     70          1           0       -2.507313    3.642477    3.151428
     71          1           0       -2.664497    1.874151    3.152062
     72          1           0       -1.051961    2.652835    2.980741
     73          1           0        5.782298   -2.293632   -1.339081
     74          1           0        6.568224   -2.583025    0.249721
     75          1           0        7.176080   -1.317367   -0.838043
     76          1           0       -4.302975   -3.277141   -1.158439
     77          1           0       -3.993898    0.996088   -0.649858
     78          1           0       -6.596583   -3.205685   -0.243866
     79          1           0       -6.265304    1.046120    0.278321
     80          1           0       -7.581770   -1.046078    0.478480
 ---------------------------------------------------------------------
 Rotational constants (GHZ):           0.1355023           0.0752847           0.0624419
 Standard basis: 3-21G* (6D, 7F)
 There are   454 symmetry adapted cartesian basis functions of A   symmetry.
 There are   454 symmetry adapted basis functions of A   symmetry.
   454 basis functions,   744 primitive gaussians,   454 cartesian basis functions
   156 alpha electrons      156 beta electrons
       nuclear repulsion energy      5941.0524922539 Hartrees.
 NAtoms=   80 NActive=   80 NUniq=   80 SFac= 1.00D+00 NAtFMM=   60 NAOKFM=T Big=T
 Integral buffers will be    131072 words long.
 Raffenetti 1 integral format.
 Two-electron integral symmetry is turned on.
 One-electron integrals computed using PRISM.
 NBasis=   454 RedAO= T EigKep=  1.57D-03  NBF=   454
 NBsUse=   454 1.00D-06 EigRej= -1.00D+00 NBFU=   454
 Initial guess from the read-write file.
 Requested convergence on RMS density matrix=1.00D-08 within 128 cycles.
 Requested convergence on MAX density matrix=1.00D-06.
 Requested convergence on             energy=1.00D-06.
 No special actions if energy rises.
 SCF Done:  E(RHF) =  -2008.13011593     A.U. after    1 cycles
            NFock=  1  Conv=0.11D-09     -V/T= 2.0024

 **********************************************************************

            Population analysis using the SCF Density.

 **********************************************************************

 Orbital symmetries:
       Occupied  (A) (A) (A) (A) (A) (A) (A) (A) (A) (A) (A) (A)
                 (A) (A) (A) (A) (A) (A) (A) (A) (A) (A) (A) (A)
                 (A) (A) (A) (A) (A) (A) (A) (A) (A) (A) (A) (A)
                 (A) (A) (A) (A) (A) (A) (A) (A) (A) (A) (A) (A)
                 (A) (A) (A) (A) (A) (A) (A) (A) (A) (A) (A) (A)
                 (A) (A) (A) (A) (A) (A) (A) (A) (A) (A) (A) (A)
                 (A) (A) (A) (A) (A) (A) (A) (A) (A) (A) (A) (A)
                 (A) (A) (A) (A) (A) (A) (A) (A) (A) (A) (A) (A)
                 (A) (A) (A) (A) (A) (A) (A) (A) (A) (A) (A) (A)
                 (A) (A) (A) (A) (A) (A) (A) (A) (A) (A) (A) (A)
                 (A) (A) (A) (A) (A) (A) (A) (A) (A) (A) (A) (A)
                 (A) (A) (A) (A) (A) (A) (A) (A) (A) (A) (A) (A)
                 (A) (A) (A) (A) (A) (A) (A) (A) (A) (A) (A) (A)
       Virtual   (A) (A) (A) (A) (A) (A) (A) (A) (A) (A) (A) (A)
                 (A) (A) (A) (A) (A) (A) (A) (A) (A) (A) (A) (A)
                 (A) (A) (A) (A) (A) (A) (A) (A) (A) (A) (A) (A)
                 (A) (A) (A) (A) (A) (A) (A) (A) (A) (A) (A) (A)
                 (A) (A) (A) (A) (A) (A) (A) (A) (A) (A) (A) (A)
                 (A) (A) (A) (A) (A) (A) (A) (A) (A) (A) (A) (A)
                 (A) (A) (A) (A) (A) (A) (A) (A) (A) (A) (A) (A)
                 (A) (A) (A) (A) (A) (A) (A) (A) (A) (A) (A) (A)
                 (A) (A) (A) (A) (A) (A) (A) (A) (A) (A) (A) (A)
                 (A) (A) (A) (A) (A) (A) (A) (A) (A) (A) (A) (A)
                 (A) (A) (A) (A) (A) (A) (A) (A) (A) (A) (A) (A)
                 (A) (A) (A) (A) (A) (A) (A) (A) (A) (A) (A) (A)
                 (A) (A) (A) (A) (A) (A) (A) (A) (A) (A) (A) (A)
                 (A) (A) (A) (A) (A) (A) (A) (A) (A) (A) (A) (A)
                 (A) (A) (A) (A) (A) (A) (A) (A) (A) (A) (A) (A)
                 (A) (A) (A) (A) (A) (A) (A) (A) (A) (A) (A) (A)
                 (A) (A) (A) (A) (A) (A) (A) (A) (A) (A) (A) (A)
                 (A) (A) (A) (A) (A) (A) (A) (A) (A) (A) (A) (A)
                 (A) (A) (A) (A) (A) (A) (A) (A) (A) (A) (A) (A)
                 (A) (A) (A) (A) (A) (A) (A) (A) (A) (A) (A) (A)
                 (A) (A) (A) (A) (A) (A) (A) (A) (A) (A) (A) (A)
                 (A) (A) (A) (A) (A) (A) (A) (A) (A) (A) (A) (A)
                 (A) (A) (A) (A) (A) (A) (A) (A) (A) (A) (A) (A)
                 (A) (A) (A) (A) (A) (A) (A) (A) (A) (A) (A) (A)
                 (A) (A) (A) (A) (A) (A) (A) (A) (A) (A)
 The electronic state is 1-A.
 Alpha  occ. eigenvalues --  -20.52972 -20.51236 -20.50662 -20.48815 -20.48240
 Alpha  occ. eigenvalues --  -20.48101 -20.45626 -20.45407 -20.45278 -20.44364
 Alpha  occ. eigenvalues --  -20.43773 -11.36446 -11.34062 -11.32124 -11.31111
 Alpha  occ. eigenvalues --  -11.29465 -11.27619 -11.27536 -11.26898 -11.26186
 Alpha  occ. eigenvalues --  -11.25466 -11.25153 -11.24073 -11.24054 -11.23951
 Alpha  occ. eigenvalues --  -11.21852 -11.21722 -11.21682 -11.19955 -11.19819
 Alpha  occ. eigenvalues --  -11.19457 -11.19298 -11.19262 -11.19037 -11.18928
 Alpha  occ. eigenvalues --  -11.18809 -11.18781 -11.18775 -11.18115 -11.17788
 Alpha  occ. eigenvalues --  -11.16754 -11.16609  -1.50550  -1.47422  -1.46861
 Alpha  occ. eigenvalues --   -1.42305  -1.41054  -1.40154  -1.37734  -1.37166
 Alpha  occ. eigenvalues --   -1.37118  -1.35616  -1.35574  -1.17715  -1.17101
 Alpha  occ. eigenvalues --   -1.14873  -1.09241  -1.07771  -1.07707  -1.06409
 Alpha  occ. eigenvalues --   -1.04966  -1.03521  -1.03011  -1.02581  -1.00530
 Alpha  occ. eigenvalues --   -0.99777  -0.95462  -0.95292  -0.94450  -0.93706
 Alpha  occ. eigenvalues --   -0.91665  -0.89173  -0.87364  -0.85583  -0.84372
 Alpha  occ. eigenvalues --   -0.83652  -0.82911  -0.80596  -0.79380  -0.77300
 Alpha  occ. eigenvalues --   -0.76454  -0.74948  -0.74431  -0.73546  -0.73087
 Alpha  occ. eigenvalues --   -0.71629  -0.70875  -0.70437  -0.69772  -0.68701
 Alpha  occ. eigenvalues --   -0.68452  -0.68026  -0.67014  -0.66758  -0.66255
 Alpha  occ. eigenvalues --   -0.66031  -0.65705  -0.65160  -0.65033  -0.63952
 Alpha  occ. eigenvalues --   -0.63709  -0.63295  -0.63117  -0.62612  -0.61864
 Alpha  occ. eigenvalues --   -0.61688  -0.61003  -0.60606  -0.60225  -0.59973
 Alpha  occ. eigenvalues --   -0.59603  -0.59106  -0.58728  -0.58258  -0.57600
 Alpha  occ. eigenvalues --   -0.57507  -0.56781  -0.56459  -0.55762  -0.55645
 Alpha  occ. eigenvalues --   -0.55250  -0.54919  -0.54150  -0.53713  -0.53443
 Alpha  occ. eigenvalues --   -0.53337  -0.52592  -0.52426  -0.52180  -0.52039
 Alpha  occ. eigenvalues --   -0.51915  -0.51182  -0.50917  -0.50625  -0.50189
 Alpha  occ. eigenvalues --   -0.49746  -0.49623  -0.49117  -0.48441  -0.48149
 Alpha  occ. eigenvalues --   -0.47623  -0.47160  -0.46660  -0.46153  -0.44696
 Alpha  occ. eigenvalues --   -0.44276  -0.43918  -0.43319  -0.43046  -0.42193
 Alpha  occ. eigenvalues --   -0.41941  -0.40297  -0.38861  -0.35280  -0.34704
 Alpha  occ. eigenvalues --   -0.34026
 Alpha virt. eigenvalues --    0.10316   0.10751   0.13692   0.13968   0.14340
 Alpha virt. eigenvalues --    0.17627   0.17794   0.20642   0.21924   0.22095
 Alpha virt. eigenvalues --    0.23811   0.24100   0.24725   0.25613   0.25912
 Alpha virt. eigenvalues --    0.27163   0.27543   0.27824   0.27886   0.28759
 Alpha virt. eigenvalues --    0.28797   0.29302   0.29761   0.30099   0.30366
 Alpha virt. eigenvalues --    0.31302   0.31547   0.31654   0.31736   0.32361
 Alpha virt. eigenvalues --    0.32629   0.32766   0.33308   0.33808   0.34029
 Alpha virt. eigenvalues --    0.34157   0.34401   0.34859   0.35177   0.35634
 Alpha virt. eigenvalues --    0.36124   0.36398   0.36502   0.36630   0.37689
 Alpha virt. eigenvalues --    0.37752   0.38613   0.39524   0.39651   0.40311
 Alpha virt. eigenvalues --    0.40531   0.41180   0.41704   0.41962   0.42057
 Alpha virt. eigenvalues --    0.42579   0.43522   0.43684   0.44383   0.44774
 Alpha virt. eigenvalues --    0.45509   0.45859   0.46173   0.46591   0.47321
 Alpha virt. eigenvalues --    0.47715   0.48313   0.49537   0.49939   0.50538
 Alpha virt. eigenvalues --    0.50768   0.51317   0.51649   0.52347   0.52892
 Alpha virt. eigenvalues --    0.53412   0.53987   0.55035   0.55150   0.56105
 Alpha virt. eigenvalues --    0.57655   0.59897   0.60769   0.61852   0.62986
 Alpha virt. eigenvalues --    0.63801   0.65549   0.66685   0.70546   0.70934
 Alpha virt. eigenvalues --    0.75924   0.81296   0.84548   0.86233   0.87534
 Alpha virt. eigenvalues --    0.89318   0.90648   0.91203   0.92018   0.92445
 Alpha virt. eigenvalues --    0.92987   0.93659   0.94233   0.94581   0.94672
 Alpha virt. eigenvalues --    0.95138   0.95555   0.95975   0.96161   0.96638
 Alpha virt. eigenvalues --    0.97204   0.97288   0.97928   0.98061   0.98877
 Alpha virt. eigenvalues --    0.99088   0.99514   0.99697   1.00352   1.00905
 Alpha virt. eigenvalues --    1.00963   1.01445   1.02253   1.02756   1.03777
 Alpha virt. eigenvalues --    1.04213   1.04323   1.04742   1.05222   1.05831
 Alpha virt. eigenvalues --    1.06012   1.06429   1.06850   1.07109   1.07477
 Alpha virt. eigenvalues --    1.07800   1.08089   1.08780   1.09489   1.10068
 Alpha virt. eigenvalues --    1.10292   1.10641   1.11883   1.12301   1.12863
 Alpha virt. eigenvalues --    1.12945   1.13740   1.14056   1.14650   1.16217
 Alpha virt. eigenvalues --    1.16939   1.17229   1.18189   1.19633   1.19985
 Alpha virt. eigenvalues --    1.20899   1.21168   1.22042   1.23178   1.23989
 Alpha virt. eigenvalues --    1.25392   1.26414   1.26613   1.26899   1.28217
 Alpha virt. eigenvalues --    1.28727   1.29464   1.30084   1.30715   1.31021
 Alpha virt. eigenvalues --    1.32071   1.32529   1.32853   1.33102   1.33765
 Alpha virt. eigenvalues --    1.33919   1.34324   1.34665   1.34972   1.35176
 Alpha virt. eigenvalues --    1.35384   1.35772   1.36612   1.37752   1.38116
 Alpha virt. eigenvalues --    1.38479   1.39140   1.40441   1.41120   1.41253
 Alpha virt. eigenvalues --    1.41866   1.42891   1.43124   1.44429   1.44760
 Alpha virt. eigenvalues --    1.45203   1.45928   1.46376   1.47244   1.47832
 Alpha virt. eigenvalues --    1.48298   1.49122   1.49457   1.50383   1.52003
 Alpha virt. eigenvalues --    1.53258   1.54367   1.55336   1.56672   1.58673
 Alpha virt. eigenvalues --    1.60008   1.60538   1.61593   1.62752   1.64094
 Alpha virt. eigenvalues --    1.65878   1.68305   1.70461   1.71462   1.72941
 Alpha virt. eigenvalues --    1.75010   1.75979   1.77141   1.78204   1.79616
 Alpha virt. eigenvalues --    1.80355   1.81667   1.83056   1.83565   1.84218
 Alpha virt. eigenvalues --    1.85389   1.88419   1.89277   1.90360   1.90884
 Alpha virt. eigenvalues --    1.93272   1.93610   1.94024   1.95370   1.97671
 Alpha virt. eigenvalues --    1.99207   1.99989   2.00051   2.00719   2.01657
 Alpha virt. eigenvalues --    2.02392   2.03353   2.05215   2.06559   2.08411
 Alpha virt. eigenvalues --    2.08869   2.09498   2.10540   2.12770   2.14400
 Alpha virt. eigenvalues --    2.15366   2.16238   2.16630   2.17297   2.19117
 Alpha virt. eigenvalues --    2.20977   2.21561   2.23262   2.24447   2.24853
 Alpha virt. eigenvalues --    2.25859   2.28792   2.29868   2.30116   2.33806
 Alpha virt. eigenvalues --    2.35406   2.38340   2.39588   2.43765   2.47273
 Alpha virt. eigenvalues --    2.48821   2.50036   2.54188   2.54273   2.58190
 Alpha virt. eigenvalues --    2.63634   2.73917   2.75744   2.79983   2.82861
 Alpha virt. eigenvalues --    2.88871   3.16601   3.49348   3.58273   3.59035
 Alpha virt. eigenvalues --    3.61341   3.65577   3.69055   3.70803   3.71402
 Alpha virt. eigenvalues --    3.74221   3.86317   3.88645
          Condensed to atoms (all electrons):
 Mulliken charges:
               1
     1  O   -0.640226
     2  O   -0.709406
     3  O   -0.720072
     4  O   -0.651191
     5  O   -0.670585
     6  O   -0.695329
     7  O   -0.556155
     8  O   -0.692784
     9  O   -0.572926
    10  O   -0.561706
    11  O   -0.607737
    12  C   -0.329186
    13  C    0.161313
    14  C   -0.360938
    15  C    0.111993
    16  C    0.157927
    17  C    0.244945
    18  C    0.157562
    19  C   -0.487285
    20  C   -0.294234
    21  C   -0.030930
    22  C    0.639044
    23  C   -0.432741
    24  C    0.020372
    25  C   -0.535028
    26  C   -0.012689
    27  C    0.061434
    28  C   -0.052327
    29  C   -0.513418
    30  C   -0.545711
    31  C   -0.591306
    32  C    0.838531
    33  C    0.951515
    34  C   -0.677747
    35  C    0.865880
    36  C   -0.211309
    37  C   -0.673890
    38  C   -0.200832
    39  C   -0.206789
    40  C   -0.236076
    41  C   -0.238345
    42  C   -0.231671
    43  H    0.275780
    44  H    0.259004
    45  H    0.293478
    46  H    0.274493
    47  H    0.208406
    48  H    0.270565
    49  H    0.218213
    50  H    0.291125
    51  H    0.214921
    52  H    0.280067
    53  H    0.215347
    54  H    0.278189
    55  H    0.206944
    56  H    0.274804
    57  H    0.245227
    58  H    0.234932
    59  H    0.199631
    60  H    0.187379
    61  H    0.224424
    62  H    0.232691
    63  H    0.212290
    64  H    0.380482
    65  H    0.401810
    66  H    0.211597
    67  H    0.237217
    68  H    0.227005
    69  H    0.394949
    70  H    0.248456
    71  H    0.280732
    72  H    0.227926
    73  H    0.258504
    74  H    0.239071
    75  H    0.247132
    76  H    0.267041
    77  H    0.278007
    78  H    0.242122
    79  H    0.245434
    80  H    0.244658
 Sum of Mulliken charges =   0.00000
 Mulliken charges with hydrogens summed into heavy atoms:
               1
     1  O   -0.640226
     2  O   -0.709406
     3  O   -0.720072
     4  O   -0.270709
     5  O   -0.268775
     6  O   -0.695329
     7  O   -0.556155
     8  O   -0.297835
     9  O   -0.572926
    10  O   -0.561706
    11  O   -0.607737
    12  C   -0.053406
    13  C    0.161313
    14  C   -0.360938
    15  C    0.370997
    16  C    0.451405
    17  C    0.244945
    18  C    0.432056
    19  C   -0.008314
    20  C   -0.294234
    21  C    0.478408
    22  C    0.639044
    23  C    0.062247
    24  C    0.020372
    25  C    0.165452
    26  C    0.262115
    27  C    0.306661
    28  C   -0.052327
    29  C    0.108524
    30  C    0.123695
    31  C    0.084513
    32  C    0.838531
    33  C    0.951515
    34  C    0.079367
    35  C    0.865880
    36  C   -0.211309
    37  C    0.070816
    38  C    0.066209
    39  C    0.071217
    40  C    0.006046
    41  C    0.007089
    42  C    0.012988
 Electronic spatial extent (au):  <R**2>=          18560.1977
 Charge=              0.0000 electrons
 Dipole moment (field-independent basis, Debye):
    X=             -2.2197    Y=             -3.5103    Z=              5.6225  Tot=              6.9901
 Quadrupole moment (field-independent basis, Debye-Ang):
   XX=           -264.3213   YY=           -247.7432   ZZ=           -260.1334
   XY=            -10.0821   XZ=             -0.0633   YZ=              2.8453
 Traceless Quadrupole moment (field-independent basis, Debye-Ang):
   XX=             -6.9220   YY=              9.6561   ZZ=             -2.7341
   XY=            -10.0821   XZ=             -0.0633   YZ=              2.8453
 Octapole moment (field-independent basis, Debye-Ang**2):
  XXX=           -140.9947  YYY=           -102.8365  ZZZ=              2.1392  XYY=              0.7089
  XXY=           -132.4885  XXZ=             57.5445  XZZ=             33.9967  YZZ=             46.0153
  YYZ=             57.0929  XYZ=             30.2838
 Hexadecapole moment (field-independent basis, Debye-Ang**3):
 XXXX=         -13858.2965 YYYY=          -6791.1055 ZZZZ=          -3387.6824 XXXY=           -376.3991
 XXXZ=           -267.4111 YYYX=            187.2737 YYYZ=            135.6943 ZZZX=            -30.5057
 ZZZY=            -61.7907 XXYY=          -3538.7863 XXZZ=          -3137.3365 YYZZ=          -1661.6462
 XXYZ=             58.3725 YYXZ=            -13.7051 ZZXY=           -137.5788
 N-N= 5.941052492254D+03 E-N=-1.658574680754D+04  KE= 2.003398248908D+03
 Calling FoFJK, ICntrl=      2127 FMM=T ISym2X=0 I1Cent= 0 IOpClX= 0 NMat=1 NMatS=1 NMatT=0.
 ***** Axes restored to original set *****
 -------------------------------------------------------------------
 Center     Atomic                   Forces (Hartrees/Bohr)
 Number     Number              X              Y              Z
 -------------------------------------------------------------------
      1        8           0.013314693    0.004019206   -0.006306475
      2        8           0.001428638   -0.010555722    0.007841233
      3        8           0.014274143    0.000165661    0.006626145
      4        8           0.040736220   -0.032364533    0.042603314
      5        8          -0.005739854    0.002536869   -0.004390078
      6        8           0.008682524    0.003086953   -0.015653885
      7        8          -0.033815430    0.010780644    0.034591761
      8        8           0.005949157    0.016196648    0.007763089
      9        8           0.019663969   -0.037838833    0.009941530
     10        8          -0.042018227    0.073340207   -0.010144212
     11        8          -0.026987853   -0.036332075    0.007004170
     12        6           0.001149461    0.005155102    0.016663743
     13        6          -0.016558747    0.011737652   -0.015589317
     14        6          -0.008737936   -0.018674629   -0.015255048
     15        6           0.043109852    0.025524980    0.028485059
     16        6           0.021408121   -0.012450624   -0.029829215
     17        6           0.009821529   -0.018710780    0.016252220
     18        6           0.020483488    0.011497632    0.005049653
     19        6          -0.001899424   -0.003708071    0.010535621
     20        6          -0.001940416   -0.003413707    0.001141607
     21        6          -0.018322130   -0.023769534   -0.067246133
     22        6           0.020871444   -0.009857377   -0.036799669
     23        6          -0.006603424   -0.004651576   -0.003586738
     24        6          -0.018625935    0.013976856    0.023359686
     25        6           0.010427294    0.004677759   -0.017747762
     26        6          -0.010370165    0.023913678    0.023282766
     27        6          -0.005644275   -0.013280490    0.008188490
     28        6           0.018197321   -0.013662549   -0.042328763
     29        6          -0.003943877   -0.010793349    0.010981458
     30        6           0.010658281    0.004026675   -0.013990181
     31        6           0.007625717    0.005659582    0.007471927
     32        6          -0.039452912    0.036906127    0.028408031
     33        6          -0.037371014   -0.034188456   -0.053697656
     34        6          -0.009248998    0.017642278    0.014725392
     35        6           0.034318152    0.023491513   -0.011880016
     36        6           0.018107038    0.001548063   -0.003176113
     37        6           0.013191798   -0.002851246   -0.004183711
     38        6          -0.017678590   -0.008633888    0.002463082
     39        6          -0.019384584    0.013409935    0.009348960
     40        6           0.000157728   -0.001474162    0.000655531
     41        6          -0.001817363    0.001040891   -0.000592422
     42        6          -0.000461236   -0.000519261    0.000414706
     43        1          -0.004472252    0.000047182   -0.004364414
     44        1          -0.004654525   -0.016997599   -0.007184451
     45        1           0.001531266   -0.005973756    0.013794301
     46        1          -0.007628105   -0.001823005   -0.008910151
     47        1          -0.003938613    0.003860781   -0.005254422
     48        1           0.000307054   -0.012069233   -0.005113197
     49        1           0.004805166    0.004708467    0.008626619
     50        1           0.013864278   -0.010361525    0.017243158
     51        1           0.007600760    0.007234433   -0.008584478
     52        1           0.013729092    0.000810558    0.000877503
     53        1           0.002109092   -0.005794983    0.008563622
     54        1          -0.009164076   -0.002321182    0.014373679
     55        1           0.000008050    0.005306236    0.008631064
     56        1          -0.007216997   -0.008026193   -0.002817709
     57        1          -0.001608531    0.009602548   -0.005489317
     58        1          -0.008257730    0.007773791   -0.003088968
     59        1           0.002960368    0.004519217   -0.006335476
     60        1           0.004311049    0.007621721    0.001271833
     61        1          -0.008096292    0.006485062    0.003226892
     62        1          -0.000741648    0.009441431    0.011829561
     63        1           0.002507505   -0.006590689    0.005533019
     64        1           0.002819228    0.003414268   -0.001392988
     65        1           0.001947681    0.000614878    0.000387654
     66        1           0.001456392   -0.005976736    0.004692364
     67        1          -0.002511342    0.005168249   -0.008474764
     68        1          -0.010051190    0.001482272   -0.003096050
     69        1          -0.006883677   -0.000736041    0.003208873
     70        1           0.001184766   -0.008790191   -0.003614678
     71        1           0.008789741    0.001821672   -0.001844646
     72        1          -0.008344068   -0.005460033   -0.001528059
     73        1           0.001055805    0.002262942    0.010086179
     74        1          -0.004202450    0.001102756   -0.005890381
     75        1          -0.008521283   -0.002888742    0.005079452
     76        1          -0.000184151    0.013126478    0.000737645
     77        1          -0.001094875   -0.014361679    0.001727828
     78        1           0.005914847    0.008995642   -0.000729617
     79        1           0.004017037   -0.009325231   -0.003650719
     80        1           0.009698448   -0.000507818   -0.003928542
 -------------------------------------------------------------------
 Cartesian Forces:  Max     0.073340207 RMS     0.015733531

 GradGradGradGradGradGradGradGradGradGradGradGradGradGradGradGradGradGrad
 Berny optimization.
 FormGI is forming the generalized inverse of G from B-inverse, IUseBI=4.
 Internal  Forces:  Max     0.279141833 RMS     0.021129196
 Search for a local minimum.
 Step number   1 out of a maximum of  480
 All quantities printed in internal units (Hartrees-Bohrs-Radians)
 Mixed Optimization -- RFO/linear search
 Second derivative matrix not updated -- first step.
 ITU=  0
     Eigenvalues ---    0.00230   0.00230   0.00230   0.00269   0.00317
     Eigenvalues ---    0.00351   0.00454   0.00503   0.00626   0.00669
     Eigenvalues ---    0.00781   0.00791   0.00795   0.00967   0.01009
     Eigenvalues ---    0.01059   0.01133   0.01151   0.01180   0.01205
     Eigenvalues ---    0.01239   0.01267   0.01290   0.01440   0.01452
     Eigenvalues ---    0.01463   0.01474   0.01936   0.02035   0.02101
     Eigenvalues ---    0.02122   0.02159   0.02165   0.02167   0.02170
     Eigenvalues ---    0.02204   0.02256   0.02278   0.02309   0.02326
     Eigenvalues ---    0.02340   0.02361   0.02780   0.02998   0.03257
     Eigenvalues ---    0.03583   0.03706   0.03929   0.04004   0.04112
     Eigenvalues ---    0.04248   0.04325   0.04492   0.04659   0.04729
     Eigenvalues ---    0.04849   0.04967   0.05017   0.05048   0.05048
     Eigenvalues ---    0.05222   0.05281   0.05316   0.05392   0.05395
     Eigenvalues ---    0.05430   0.05549   0.05701   0.05783   0.06169
     Eigenvalues ---    0.06340   0.06894   0.06972   0.07068   0.07227
     Eigenvalues ---    0.07276   0.07342   0.07435   0.07494   0.07582
     Eigenvalues ---    0.07604   0.07780   0.07942   0.08127   0.08220
     Eigenvalues ---    0.08390   0.08393   0.08511   0.08741   0.08955
     Eigenvalues ---    0.09207   0.09630   0.10267   0.10419   0.10704
     Eigenvalues ---    0.11123   0.12572   0.13091   0.14786   0.15891
     Eigenvalues ---    0.15993   0.16000   0.16000   0.16000   0.16000
     Eigenvalues ---    0.16000   0.16000   0.16000   0.16000   0.16000
     Eigenvalues ---    0.16000   0.16000   0.16000   0.16000   0.16000
     Eigenvalues ---    0.16000   0.16000   0.16000   0.16000   0.16000
     Eigenvalues ---    0.16000   0.16000   0.16000   0.16000   0.16000
     Eigenvalues ---    0.16000   0.16200   0.16346   0.17544   0.17820
     Eigenvalues ---    0.18357   0.18591   0.19642   0.21369   0.22000
     Eigenvalues ---    0.22000   0.22217   0.22314   0.23203   0.23508
     Eigenvalues ---    0.23553   0.24022   0.24716   0.24884   0.24920
     Eigenvalues ---    0.25000   0.25000   0.25000   0.25000   0.25000
     Eigenvalues ---    0.25000   0.25000   0.25000   0.25000   0.25000
     Eigenvalues ---    0.25347   0.25515   0.26108   0.26518   0.26684
     Eigenvalues ---    0.26888   0.27031   0.27112   0.27454   0.28138
     Eigenvalues ---    0.28356   0.28688   0.29838   0.29972   0.30800
     Eigenvalues ---    0.31294   0.32500   0.32607   0.33864   0.33910
     Eigenvalues ---    0.33930   0.33932   0.33988   0.34010   0.34023
     Eigenvalues ---    0.34056   0.34104   0.34119   0.34138   0.34139
     Eigenvalues ---    0.34177   0.34199   0.34243   0.34256   0.34270
     Eigenvalues ---    0.34350   0.34388   0.34410   0.34440   0.34471
     Eigenvalues ---    0.34511   0.34533   0.34534   0.34547   0.34599
     Eigenvalues ---    0.34640   0.34687   0.34938   0.35082   0.35123
     Eigenvalues ---    0.35229   0.35237   0.35260   0.35267   0.35431
     Eigenvalues ---    0.35668   0.38531   0.39461   0.40392   0.40689
     Eigenvalues ---    0.42465   0.42749   0.42874   0.43126   0.46531
     Eigenvalues ---    0.46637   0.48184   0.48915   0.50555   0.51153
     Eigenvalues ---    0.52914   0.53200   0.53485   0.54324   0.55146
     Eigenvalues ---    0.87706   0.93893   0.93953   0.94836
 RFO step:  Lambda=-3.83660596D-01 EMin= 2.30000000D-03
 Linear search not attempted -- first point.
 Maximum step size (   0.300) exceeded in Quadratic search.
    -- Step size scaled by   0.482
 Iteration  1 RMS(Cart)=  0.18096151 RMS(Int)=  0.00876898
 Iteration  2 RMS(Cart)=  0.08569058 RMS(Int)=  0.00155366
 Iteration  3 RMS(Cart)=  0.00403603 RMS(Int)=  0.00028853
 Iteration  4 RMS(Cart)=  0.00000844 RMS(Int)=  0.00028852
 Iteration  5 RMS(Cart)=  0.00000000 RMS(Int)=  0.00028852
 Variable       Old X    -DE/DX   Delta X   Delta X   Delta X     New X
                                 (Linear)    (Quad)   (Total)
    R1        2.74780   0.01314   0.00000   0.00883   0.00877   2.75658
    R2        2.75229   0.01860   0.00000   0.01239   0.01236   2.76465
    R3        2.67981   0.05555   0.00000   0.03302   0.03302   2.71283
    R4        2.55003   0.03450   0.00000   0.01779   0.01779   2.56782
    R5        2.72292   0.07871   0.00000   0.04876   0.04876   2.77168
    R6        2.55738   0.04115   0.00000   0.02140   0.02140   2.57878
[...]
     64          1           0       -1.342784   -3.475170   -0.258007
     65          1           0        1.358142    3.957560   -1.577862
     66          1           0        2.312880    0.717774    3.064955
     67          1           0        2.416328   -0.694713    4.066595
     68          1           0        3.645846   -0.413742    2.849738
     69          1           0       -0.304909    0.340700    2.871026
     70          1           0       -3.878825    1.072810    3.504817
     71          1           0       -2.258478    0.335543    3.624858
     72          1           0       -2.483795    2.022104    4.006857
     73          1           0        5.918828   -1.874815   -2.275666
     74          1           0        6.354220   -2.713102   -0.797573
     75          1           0        7.321464   -1.325330   -1.345291
     76          1           0       -4.600730   -0.450580   -3.234660
     77          1           0       -3.824873   -0.987222    0.893675
     78          1           0       -6.965114   -1.080613   -2.882270
     79          1           0       -6.173865   -1.624421    1.265614
     80          1           0       -7.739719   -1.667255   -0.624069
 ---------------------------------------------------------------------
 Rotational constants (GHZ):           0.1433175           0.0699805           0.0649757

 **********************************************************************

            Population analysis using the SCF Density.

 **********************************************************************

 Orbital symmetries:
       Occupied  (A) (A) (A) (A) (A) (A) (A) (A) (A) (A) (A) (A)
                 (A) (A) (A) (A) (A) (A) (A) (A) (A) (A) (A) (A)
                 (A) (A) (A) (A) (A) (A) (A) (A) (A) (A) (A) (A)
                 (A) (A) (A) (A) (A) (A) (A) (A) (A) (A) (A) (A)
                 (A) (A) (A) (A) (A) (A) (A) (A) (A) (A) (A) (A)
                 (A) (A) (A) (A) (A) (A) (A) (A) (A) (A) (A) (A)
                 (A) (A) (A) (A) (A) (A) (A) (A) (A) (A) (A) (A)
                 (A) (A) (A) (A) (A) (A) (A) (A) (A) (A) (A) (A)
                 (A) (A) (A) (A) (A) (A) (A) (A) (A) (A) (A) (A)
                 (A) (A) (A) (A) (A) (A) (A) (A) (A) (A) (A) (A)
                 (A) (A) (A) (A) (A) (A) (A) (A) (A) (A) (A) (A)
                 (A) (A) (A) (A) (A) (A) (A) (A) (A) (A) (A) (A)
                 (A) (A) (A) (A) (A) (A) (A) (A) (A) (A) (A) (A)
       Virtual   (A) (A) (A) (A) (A) (A) (A) (A) (A) (A) (A) (A)
                 (A) (A) (A) (A) (A) (A) (A) (A) (A) (A) (A) (A)
                 (A) (A) (A) (A) (A) (A) (A) (A) (A) (A) (A) (A)
                 (A) (A) (A) (A) (A) (A) (A) (A) (A) (A) (A) (A)
                 (A) (A) (A) (A) (A) (A) (A) (A) (A) (A) (A) (A)
                 (A) (A) (A) (A) (A) (A) (A) (A) (A) (A) (A) (A)
                 (A) (A) (A) (A) (A) (A) (A) (A) (A) (A) (A) (A)
                 (A) (A) (A) (A) (A) (A) (A) (A) (A) (A) (A) (A)
                 (A) (A) (A) (A) (A) (A) (A) (A) (A) (A) (A) (A)
                 (A) (A) (A) (A) (A) (A) (A) (A) (A) (A) (A) (A)
                 (A) (A) (A) (A) (A) (A) (A) (A) (A) (A) (A) (A)
                 (A) (A) (A) (A) (A) (A) (A) (A) (A) (A) (A) (A)
                 (A) (A) (A) (A) (A) (A) (A) (A) (A) (A) (A) (A)
                 (A) (A) (A) (A) (A) (A) (A) (A) (A) (A) (A) (A)
                 (A) (A) (A) (A) (A) (A) (A) (A) (A) (A) (A) (A)
                 (A) (A) (A) (A) (A) (A) (A) (A) (A) (A) (A) (A)
                 (A) (A) (A) (A) (A) (A) (A) (A) (A) (A) (A) (A)
                 (A) (A) (A) (A) (A) (A) (A) (A) (A) (A) (A) (A)
                 (A) (A) (A) (A) (A) (A) (A) (A) (A) (A) (A) (A)
                 (A) (A) (A) (A) (A) (A) (A) (A) (A) (A) (A) (A)
                 (A) (A) (A) (A) (A) (A) (A) (A) (A) (A) (A) (A)
                 (A) (A) (A) (A) (A) (A) (A) (A) (A) (A) (A) (A)
                 (A) (A) (A) (A) (A) (A) (A) (A) (A) (A) (A) (A)
                 (A) (A) (A) (A) (A) (A) (A) (A) (A) (A) (A) (A)
                 (A) (A) (A) (A) (A) (A) (A) (A) (A) (A)
 The electronic state is 1-A.
 Alpha  occ. eigenvalues --  -20.52770 -20.50675 -20.50130 -20.47631 -20.47268
 Alpha  occ. eigenvalues --  -20.46692 -20.46256 -20.45711 -20.45318 -20.45315
 Alpha  occ. eigenvalues --  -20.42567 -11.35961 -11.34319 -11.33717 -11.29281
 Alpha  occ. eigenvalues --  -11.28210 -11.26169 -11.25929 -11.25684 -11.25153
 Alpha  occ. eigenvalues --  -11.25069 -11.24068 -11.23562 -11.21559 -11.21137
 Alpha  occ. eigenvalues --  -11.20519 -11.20408 -11.20223 -11.20007 -11.19758
 Alpha  occ. eigenvalues --  -11.19685 -11.19407 -11.19165 -11.18903 -11.18758
 Alpha  occ. eigenvalues --  -11.18607 -11.18467 -11.17951 -11.17641 -11.17105
 Alpha  occ. eigenvalues --  -11.15127 -11.14235  -1.48491  -1.47348  -1.47113
 Alpha  occ. eigenvalues --   -1.41968  -1.40587  -1.38558  -1.38136  -1.36737
 Alpha  occ. eigenvalues --   -1.36201  -1.35935  -1.33911  -1.18263  -1.17914
 Alpha  occ. eigenvalues --   -1.14173  -1.09387  -1.07301  -1.07000  -1.06127
 Alpha  occ. eigenvalues --   -1.05368  -1.03789  -1.03540  -1.02522  -1.00564
 Alpha  occ. eigenvalues --   -0.99538  -0.95219  -0.94400  -0.94101  -0.93475
 Alpha  occ. eigenvalues --   -0.91202  -0.88227  -0.87903  -0.85376  -0.84784
 Alpha  occ. eigenvalues --   -0.83625  -0.81813  -0.79690  -0.78418  -0.77752
 Alpha  occ. eigenvalues --   -0.75809  -0.75436  -0.74524  -0.73050  -0.72317
 Alpha  occ. eigenvalues --   -0.71243  -0.69773  -0.69594  -0.69443  -0.68843
 Alpha  occ. eigenvalues --   -0.68131  -0.67503  -0.66905  -0.66554  -0.66383
 Alpha  occ. eigenvalues --   -0.65970  -0.65368  -0.65337  -0.64554  -0.64104
 Alpha  occ. eigenvalues --   -0.63486  -0.63270  -0.63065  -0.62755  -0.61799
 Alpha  occ. eigenvalues --   -0.61536  -0.61123  -0.60796  -0.60254  -0.60045
 Alpha  occ. eigenvalues --   -0.59640  -0.58735  -0.58072  -0.57891  -0.57709
 Alpha  occ. eigenvalues --   -0.56969  -0.56227  -0.55784  -0.55562  -0.55088
 Alpha  occ. eigenvalues --   -0.54795  -0.54306  -0.54170  -0.53908  -0.53387
 Alpha  occ. eigenvalues --   -0.53041  -0.52370  -0.52110  -0.51706  -0.51656
 Alpha  occ. eigenvalues --   -0.51352  -0.51300  -0.50980  -0.50753  -0.50393
 Alpha  occ. eigenvalues --   -0.50209  -0.49249  -0.48811  -0.48092  -0.47536
 Alpha  occ. eigenvalues --   -0.47304  -0.46407  -0.46075  -0.45442  -0.44867
 Alpha  occ. eigenvalues --   -0.44569  -0.43997  -0.43591  -0.43354  -0.42740
 Alpha  occ. eigenvalues --   -0.42121  -0.41488  -0.39320  -0.35678  -0.35326
 Alpha  occ. eigenvalues --   -0.34943
 Alpha virt. eigenvalues --    0.09010   0.12235   0.13904   0.15700   0.16511
 Alpha virt. eigenvalues --    0.18744   0.20427   0.22128   0.23088   0.23639
 Alpha virt. eigenvalues --    0.24134   0.25015   0.25920   0.26913   0.27208
 Alpha virt. eigenvalues --    0.27571   0.28143   0.28752   0.29374   0.30005
 Alpha virt. eigenvalues --    0.30199   0.30518   0.31086   0.31797   0.31938
 Alpha virt. eigenvalues --    0.32068   0.32357   0.32763   0.33047   0.33311
 Alpha virt. eigenvalues --    0.33666   0.33707   0.34232   0.34588   0.34884
 Alpha virt. eigenvalues --    0.35291   0.35779   0.36462   0.36628   0.36894
 Alpha virt. eigenvalues --    0.36962   0.37347   0.37671   0.38414   0.38511
 Alpha virt. eigenvalues --    0.39033   0.39270   0.39472   0.39855   0.40805
 Alpha virt. eigenvalues --    0.41444   0.41824   0.42451   0.42728   0.43343
 Alpha virt. eigenvalues --    0.43925   0.44160   0.44641   0.45091   0.45561
 Alpha virt. eigenvalues --    0.46824   0.46902   0.47017   0.47634   0.48518
 Alpha virt. eigenvalues --    0.49164   0.49607   0.49689   0.50064   0.51215
 Alpha virt. eigenvalues --    0.51636   0.52720   0.53172   0.53934   0.54467
 Alpha virt. eigenvalues --    0.54595   0.54996   0.56015   0.56762   0.57339
 Alpha virt. eigenvalues --    0.59006   0.59996   0.61144   0.62916   0.63423
 Alpha virt. eigenvalues --    0.65616   0.66523   0.67098   0.69116   0.73064
 Alpha virt. eigenvalues --    0.76504   0.82705   0.85371   0.87095   0.88299
 Alpha virt. eigenvalues --    0.89237   0.89992   0.90572   0.92188   0.92495
 Alpha virt. eigenvalues --    0.92709   0.93171   0.93451   0.94199   0.94720
 Alpha virt. eigenvalues --    0.95407   0.95501   0.96480   0.96768   0.97504
 Alpha virt. eigenvalues --    0.97947   0.98126   0.98440   0.98659   0.98976
 Alpha virt. eigenvalues --    0.99757   0.99924   1.00191   1.00499   1.00730
 Alpha virt. eigenvalues --    1.01679   1.02025   1.02073   1.02827   1.03226
 Alpha virt. eigenvalues --    1.03904   1.04344   1.04611   1.05604   1.06512
 Alpha virt. eigenvalues --    1.06701   1.07160   1.07635   1.08039   1.08483
 Alpha virt. eigenvalues --    1.09017   1.09111   1.09504   1.09745   1.10289
 Alpha virt. eigenvalues --    1.10589   1.11033   1.11639   1.12334   1.12722
 Alpha virt. eigenvalues --    1.13978   1.14788   1.15211   1.16114   1.16841
 Alpha virt. eigenvalues --    1.16950   1.17954   1.18890   1.19527   1.20074
 Alpha virt. eigenvalues --    1.22420   1.24274   1.24581   1.25708   1.26100
 Alpha virt. eigenvalues --    1.26435   1.26983   1.28147   1.28315   1.29403
 Alpha virt. eigenvalues --    1.30538   1.30777   1.31975   1.32104   1.32356
 Alpha virt. eigenvalues --    1.33115   1.33767   1.34338   1.34761   1.35117
 Alpha virt. eigenvalues --    1.35277   1.35995   1.36280   1.36408   1.36742
 Alpha virt. eigenvalues --    1.36994   1.37690   1.38144   1.38570   1.39314
 Alpha virt. eigenvalues --    1.40059   1.40685   1.41432   1.42173   1.42459
 Alpha virt. eigenvalues --    1.43115   1.43649   1.44679   1.45284   1.45862
 Alpha virt. eigenvalues --    1.46721   1.47547   1.48495   1.49024   1.49472
 Alpha virt. eigenvalues --    1.50746   1.51612   1.52127   1.53642   1.54655
 Alpha virt. eigenvalues --    1.54938   1.55329   1.57775   1.58657   1.59396
 Alpha virt. eigenvalues --    1.60762   1.61635   1.62526   1.62719   1.64135
 Alpha virt. eigenvalues --    1.65454   1.67203   1.70915   1.71118   1.71895
 Alpha virt. eigenvalues --    1.73283   1.76935   1.77705   1.79219   1.80089
 Alpha virt. eigenvalues --    1.80713   1.82065   1.84378   1.86888   1.87218
 Alpha virt. eigenvalues --    1.88414   1.90408   1.91436   1.92259   1.93797
 Alpha virt. eigenvalues --    1.94395   1.95540   1.95805   1.98351   1.99374
 Alpha virt. eigenvalues --    1.99857   2.01550   2.02838   2.03618   2.04711
 Alpha virt. eigenvalues --    2.05206   2.05852   2.06765   2.08442   2.08971
 Alpha virt. eigenvalues --    2.10566   2.10965   2.12097   2.13130   2.13538
 Alpha virt. eigenvalues --    2.14127   2.16457   2.18346   2.18777   2.20098
 Alpha virt. eigenvalues --    2.21430   2.22309   2.23640   2.24643   2.25159
 Alpha virt. eigenvalues --    2.25931   2.28747   2.29568   2.31072   2.34226
 Alpha virt. eigenvalues --    2.36230   2.42018   2.42731   2.46332   2.48082
 Alpha virt. eigenvalues --    2.49481   2.51892   2.54975   2.58964   2.62945
 Alpha virt. eigenvalues --    2.64319   2.76695   2.78534   2.86909   2.89471
 Alpha virt. eigenvalues --    2.93513   3.21383   3.50597   3.55450   3.60024
 Alpha virt. eigenvalues --    3.61781   3.65380   3.67354   3.70994   3.71791
 Alpha virt. eigenvalues --    3.75578   3.81412   3.88910
          Condensed to atoms (all electrons):
 Mulliken charges:
               1
     1  O   -0.639751
     2  O   -0.759526
     3  O   -0.725834
     4  O   -0.688450
     5  O   -0.693322
     6  O   -0.689824
     7  O   -0.562276
     8  O   -0.706882
     9  O   -0.592550
    10  O   -0.632893
    11  O   -0.616085
    12  C   -0.330496
    13  C    0.184497
    14  C   -0.379548
    15  C    0.144863
    16  C    0.130623
    17  C    0.287732
    18  C    0.172753
    19  C   -0.515888
    20  C   -0.311067
    21  C   -0.082299
    22  C    0.664052
    23  C   -0.460985
    24  C    0.023744
    25  C   -0.530335
    26  C   -0.052297
    27  C    0.066331
    28  C   -0.063652
    29  C   -0.510799
    30  C   -0.557873
    31  C   -0.597304
    32  C    0.880022
    33  C    1.021785
    34  C   -0.721919
    35  C    0.877974
    36  C   -0.251411
    37  C   -0.685062
    38  C   -0.177460
    39  C   -0.183241
    40  C   -0.243663
    41  C   -0.245586
    42  C   -0.217726
    43  H    0.299650
    44  H    0.245693
    45  H    0.315462
    46  H    0.270010
    47  H    0.224930
    48  H    0.266448
    49  H    0.253899
    50  H    0.290677
    51  H    0.214072
    52  H    0.274440
    53  H    0.216702
    54  H    0.271934
    55  H    0.214644
    56  H    0.292690
    57  H    0.250120
    58  H    0.233326
    59  H    0.201656
    60  H    0.188267
    61  H    0.244822
    62  H    0.223653
    63  H    0.215005
    64  H    0.387682
    65  H    0.422256
    66  H    0.220147
    67  H    0.243170
    68  H    0.220610
    69  H    0.413464
    70  H    0.252951
    71  H    0.279011
    72  H    0.256948
    73  H    0.271676
    74  H    0.247681
    75  H    0.248514
    76  H    0.286570
    77  H    0.268915
    78  H    0.249854
    79  H    0.243771
    80  H    0.250309
 Sum of Mulliken charges =  -0.00000
 Mulliken charges with hydrogens summed into heavy atoms:
               1
     1  O   -0.639751
     2  O   -0.759526
     3  O   -0.725834
     4  O   -0.300768
     5  O   -0.271066
     6  O   -0.689824
     7  O   -0.562276
     8  O   -0.293418
     9  O   -0.592550
    10  O   -0.632893
    11  O   -0.616085
    12  C   -0.030846
    13  C    0.184497
    14  C   -0.379548
    15  C    0.390556
    16  C    0.446085
    17  C    0.287732
    18  C    0.442762
    19  C   -0.024511
    20  C   -0.311067
    21  C    0.462277
    22  C    0.664052
    23  C    0.027527
    24  C    0.023744
    25  C    0.172945
    26  C    0.240394
    27  C    0.316451
    28  C   -0.063652
    29  C    0.112449
    30  C    0.125606
    31  C    0.086623
    32  C    0.880022
    33  C    1.021785
    34  C    0.066991
    35  C    0.877974
    36  C   -0.251411
    37  C    0.082809
    38  C    0.109110
    39  C    0.085674
    40  C    0.006191
    41  C   -0.001815
    42  C    0.032583
 Electronic spatial extent (au):  <R**2>=          18556.8791
 Charge=             -0.0000 electrons
 Dipole moment (field-independent basis, Debye):
    X=             -3.4578    Y=             -5.2036    Z=              5.7713  Tot=              8.5054
 Quadrupole moment (field-independent basis, Debye-Ang):
   XX=           -244.2513   YY=           -248.5199   ZZ=           -256.0715
   XY=             -7.5451   XZ=              2.8105   YZ=              9.1830
 Traceless Quadrupole moment (field-independent basis, Debye-Ang):
   XX=              5.3629   YY=              1.0943   ZZ=             -6.4572
   XY=             -7.5451   XZ=              2.8105   YZ=              9.1830
 Octapole moment (field-independent basis, Debye-Ang**2):
  XXX=           -132.8962  YYY=            -50.8485  ZZZ=              4.8656  XYY=              2.0291
  XXY=           -151.3456  XXZ=             -7.8502  XZZ=            -35.0672  YZZ=             14.1291
  YYZ=             55.8657  XYZ=             34.0532
 Hexadecapole moment (field-independent basis, Debye-Ang**3):
 XXXX=         -13702.0498 YYYY=          -5502.8735 ZZZZ=          -4230.9099 XXXY=           -132.5041
 XXXZ=              4.9174 YYYX=           -111.4417 YYYZ=            112.2261 ZZZX=            -38.7788
 ZZZY=             53.7528 XXYY=          -3512.0188 XXZZ=          -2953.6581 YYZZ=          -1559.6377
 XXYZ=            130.9313 YYXZ=             -8.8120 ZZXY=            -84.7093
 N-N= 5.968508051989D+03 E-N=-1.664275516138D+04  KE= 2.004204277582D+03
 Unable to Open any file for archive entry.
 1\1\GINC-AMR-200\FOpt\RHF\3-21G*\C31H38O11\LIZHEN6\26-Mar-2023\0\\# HF
 /3-21G* Geom=Chk Guess=CopyChk Opt\\CLR\\0,1\O,0.0285181022,3.59589608
 06,-1.3256401211\O,-1.0793120822,1.84776489,1.3128877643\O,-1.81654935
 49,-0.13856766,-0.36073203\O,-1.1687862292,-2.6309242659,-0.2288109155
 \O,2.5604545541,3.1534724278,-2.0908848878\O,4.2340285458,-1.652460128
 5,0.0760476807\O,3.4145654761,-0.4462864156,-2.0108088058\O,-0.0520282
 916,0.2475236044,3.4675992619\O,-3.1942506011,2.4089326462,0.716322999
 7\O,-2.1325631682,-0.381447354,-2.5684362277\O,5.763081392,-0.01766956
 03,-0.0867714594\C,0.4823893904,0.7865312154,-0.1528419422\C,-0.386891
 8437,2.0390092777,0.0478852484\C,1.6705315281,0.9673858468,-1.17933160
 24\C,0.4513165347,3.3283226368,0.0699001973\C,-0.3932964323,-0.4764958
 65,-0.4454966834\C,-0.2490418962,-1.7384844135,0.448664809\C,2.4951853
 75,2.3249753212,-0.9285752375\C,1.9398303203,3.1492694323,0.232854489\
 C,1.1715987999,-2.3344137125,0.4298682066\C,-1.0996204828,2.6286473467
 ,-1.1954373812\C,2.7686185053,-0.1166630704,-1.0433777532\C,-0.7099023
 102,-1.5279607529,1.8975890361\C,2.0706834159,-1.2926068365,1.09930070
 71\C,1.2390584513,0.9499708299,-2.6624125963\C,3.2024300245,-0.6756451
 196,0.3315009662\C,0.3649859181,-1.0181066113,2.8966337739\C,1.7498892
 303,-0.8171431823,2.2935687243\C,1.2438010276,-3.6336482667,1.27566347
 48\C,1.5726896004,-2.7669460966,-0.9984136696\C,2.6230938815,0.1059334
 91,3.127836266\C,-2.4049016536,2.0988248378,1.5630509436\C,-2.59232700
 07,-0.3953100953,-1.4521379885\C,-2.6921984603,1.9736410908,3.03421507
 36\C,5.4700956718,-1.170567073,-0.2581655226\C,-4.0115150623,-0.632209
 6185,-1.135158687\C,6.3230028463,-2.2629346735,-0.8189834352\C,-4.8819
 018346,-0.8002756933,-2.2003619112\C,-4.4763191521,-0.7071407943,0.165
 6466366\C,-6.2206886017,-1.0409072866,-1.9652093486\C,-5.8158367093,-0
 .950246491,0.4011281722\C,-6.6870752997,-1.115458149,-0.6628711136\H,0
 .9265137225,0.6582534382,0.8101200235\H,0.0276905816,4.0606543934,0.73
 9240353\H,-0.2373555638,-0.8031085547,-1.4514855826\H,3.5234168023,2.0
 68504901,-0.7237309914\H,2.1273058438,2.6736581059,1.188208007\H,2.449
 4738854,4.1038150664,0.2249145747\H,-1.194813866,1.9857235247,-2.04698
 91442\H,-2.0101363006,3.1408470779,-0.9705467723\H,-1.088093686,-2.476
 6015236,2.2594123574\H,-1.5354810538,-0.8377934746,1.9011885791\H,0.61
 79143931,1.7943250161,-2.8912378407\H,2.1186669921,1.0088452612,-3.277
 0936115\H,0.7007814453,0.0496987364,-2.9168708892\H,3.6344813076,0.143
 5477271,0.8814440555\H,0.4218421686,-1.6850863031,3.7439062166\H,2.249
 0196819,-4.0305575216,1.2068838699\H,1.0266812282,-3.4652434809,2.3203
 570909\H,0.5600818527,-4.3790679289,0.8846795228\H,2.6169601206,-3.036
 2674498,-1.0196060462\H,0.9673247509,-3.6195812501,-1.269401027\H,1.40
 79516928,-2.0166280002,-1.7518732006\H,-1.4478028118,-3.3611649266,0.3
 35579687\H,1.6884176544,3.5594783935,-2.2239710254\H,2.4062502481,1.15
 1002904,2.938145762\H,2.417890199,-0.0640756382,4.1761085407\H,3.67444
 0042,-0.0716461495,2.9544604659\H,-0.2266133304,0.8885731016,2.7598963
 367\H,-3.7593062525,1.9153841483,3.1797763635\H,-2.1852289562,1.124129
 6611,3.4620795281\H,-2.3176444097,2.8614845715,3.5344848363\H,5.914740
 0663,-2.5435496838,-1.7828061491\H,6.2855501458,-3.1277167585,-0.17088
 14952\H,7.3365076988,-1.9144158602,-0.9356408782\H,-4.495092783,-0.742
 0151124,-3.1966853365\H,-3.7954919705,-0.5764783463,0.9765915734\H,-6.
 895321118,-1.1695099268,-2.7873118707\H,-6.1809732377,-1.0083706371,1.
 4067895832\H,-7.7263893083,-1.3016292905,-0.4774405782\\Version=ES64L-
 G16RevC.01\State=1-A\HF=-2008.2730717\RMSD=8.030e-09\RMSF=5.194e-06\Di
 pole=-1.4996794,-1.5330633,2.5687112\Quadrupole=3.2811643,3.5936023,-6
 .8747665,-5.2760419,3.5601184,5.1252516\PG=C01 [X(C31H38O11)]\\@
 The archive entry for this job was punched.


 SUCCESS IS NEVER CERTAIN,
 FAILURE IS NEVER FINAL.
 Job cpu time:       0 days  2 hours 48 minutes 40.9 seconds.
 Elapsed time:       0 days  0 hours 21 minutes 36.5 seconds.
 File lengths (MBytes):  RWF=    368 Int=      0 D2E=      0 Chk=     48 Scr=     32
 Normal termination of Gaussian 16 at Sun Mar 26 15:48:50 2023.
