 Entering Gaussian System, Link 0=g16
 Initial command:
 /opt/software/Gaussian/g16-AVX2-C.01/g16/l1.exe "/mnt/gs21/scratch/lizhen6/Gau-110529.inp" -scrdir="/mnt/gs21/scratch/lizhen6/"
 Entering Link 1 = /opt/software/Gaussian/g16-AVX2-C.01/g16/l1.exe PID=    110531.
  
 Copyright (c) 1988-2019, Gaussian, Inc.  All Rights Reserved.
  
 This is part of the Gaussian(R) 16 program.  It is based on
 the Gaussian(R) 09 system (copyright 2009, Gaussian, Inc.),
 the Gaussian(R) 03 system (copyright 2003, Gaussian, Inc.),
 the Gaussian(R) 98 system (copyright 1998, Gaussian, Inc.),
 the Gaussian(R) 94 system (copyright 1995, Gaussian, Inc.),
 the Gaussian 92(TM) system (copyright 1992, Gaussian, Inc.),
 the Gaussian 90(TM) system (copyright 1990, Gaussian, Inc.),
 the Gaussian 88(TM) system (copyright 1988, Gaussian, Inc.),
 the Gaussian 86(TM) system (copyright 1986, Carnegie Mellon
 University), and the Gaussian 82(TM) system (copyright 1983,
 Carnegie Mellon University). Gaussian is a federally registered
 trademark of Gaussian, Inc.
  
 This software contains proprietary and confidential information,
 including trade secrets, belonging to Gaussian, Inc.
  
 This software is provided under written license and may be
 used, copied, transmitted, or stored only in accord with that
 written license.
  
 The following legend is applicable only to US Government
 contracts under FAR:
  
                    RESTRICTED RIGHTS LEGEND
  
 Use, reproduction and disclosure by the US Government is
 subject to restrictions as set forth in subparagraphs (a)
 and (c) of the Commercial Computer Software - Restricted
 Rights clause in FAR 52.227-19.
  
 Gaussian, Inc.
 340 Quinnipiac St., Bldg. 40, Wallingford CT 06492
  
  
 ---------------------------------------------------------------
 Warning -- This program may not be used in any manner that
 competes with the business of Gaussian, Inc. or will provide
 assistance to any competitor of Gaussian, Inc.  The licensee
 of this program is prohibited from giving any competitor of
 Gaussian, Inc. access to this program.  By using this program,
 the user acknowledges that Gaussian, Inc. is engaged in the
 business of creating and licensing software in the field of
 computational chemistry and represents and warrants to the
 licensee that it is not a competitor of Gaussian, Inc. and that
 it will not use this program in any manner prohibited above.
 ---------------------------------------------------------------
  

 Cite this work as:
 Gaussian 16, Revision C.01,
 M. J. Frisch, G. W. Trucks, H. B. Schlegel, G. E. Scuseria, 
 M. A. Robb, J. R. Cheeseman, G. Scalmani, V. Barone, 
 G. A. Petersson, H. Nakatsuji, X. Li, M. Caricato, A. V. Marenich, 
 J. Bloino, B. G. Janesko, R. Gomperts, B. Mennucci, H. P. Hratchian, 
 J. V. Ortiz, A. F. Izmaylov, J. L. Sonnenberg, D. Williams-Young, 
 F. Ding, F. Lipparini, F. Egidi, J. Goings, B. Peng, A. Petrone, 
 T. Henderson, D. Ranasinghe, V. G. Zakrzewski, J. Gao, N. Rega, 
 G. Zheng, W. Liang, M. Hada, M. Ehara, K. Toyota, R. Fukuda, 
 J. Hasegawa, M. Ishida, T. Nakajima, Y. Honda, O. Kitao, H. Nakai, 
 T. Vreven, K. Throssell, J. A. Montgomery, Jr., J. E. Peralta, 
 F. Ogliaro, M. J. Bearpark, J. J. Heyd, E. N. Brothers, K. N. Kudin, 
 V. N. Staroverov, T. A. Keith, R. Kobayashi, J. Normand, 
 K. Raghavachari, A. P. Rendell, J. C. Burant, S. S. Iyengar, 
 J. Tomasi, M. Cossi, J. M. Millam, M. Klene, C. Adamo, R. Cammi, 
 J. W. Ochterski, R. L. Martin, K. Morokuma, O. Farkas, 
 J. B. Foresman, and D. J. Fox, Gaussian, Inc., Wallingford CT, 2019.
 
 ******************************************
 Gaussian 16:  ES64L-G16RevC.01  3-Jul-2019
                26-Mar-2023 
 ******************************************
 %Chk=6WZ3_small_opt3.chk
 %Mem=32GB
 %NProcShared=8
 Will use up to    8 processors via shared memory.
 -----------------------------------------
 # B3LYP/3-21G* Geom=Chk Guess=CopyChk Opt
 -----------------------------------------
 1/18=20,19=15,26=3,29=2,38=1/1,3;
 2/9=110,12=2,40=1/2;
 3/5=5,7=1,11=2,14=-4,25=1,30=1,71=1,74=-5/1,2,3;
 4/5=18/1;
 5/5=2/2;
 6/7=2,8=2,9=2,10=2,28=1/1;
 7//1,2,3,16;
 1/18=20,19=15,26=3/3(2);
 2/9=110/2;
 99//99;
 2/9=110/2;
 3/5=5,7=1,11=2,14=-2,25=1,30=1,71=1,74=-5/1,2,3;
 4/5=5,16=3,69=1/1;
 5/5=2,38=5/2;
 7//1,2,3,16;
 1/18=20,19=15,26=3/3(-5);
 2/9=110/2;
 6/7=2,8=2,9=2,10=2,19=2,28=1/1;
 99/9=1/99;
 ---
 CLR
 ---
 Structure from the checkpoint file:  "6WZ3_small_opt3.chk"
 Charge =  0 Multiplicity = 1
 Redundant internal coordinates found in file.  (old form).
 O,0,0.0285181022,3.5958960806,-1.3256401211
 O,0,-1.0793120822,1.84776489,1.3128877643
 O,0,-1.8165493549,-0.13856766,-0.36073203
 O,0,-1.1687862292,-2.6309242659,-0.2288109155
 O,0,2.5604545541,3.1534724278,-2.0908848878
 O,0,4.2340285458,-1.6524601285,0.0760476807
 O,0,3.4145654761,-0.4462864156,-2.0108088058
 O,0,-0.0520282916,0.2475236044,3.4675992619
 O,0,-3.1942506011,2.4089326462,0.7163229997
 O,0,-2.1325631682,-0.381447354,-2.5684362277
 O,0,5.763081392,-0.0176695603,-0.0867714594
 C,0,0.4823893904,0.7865312154,-0.1528419422
 C,0,-0.3868918437,2.0390092777,0.0478852484
 C,0,1.6705315281,0.9673858468,-1.1793316024
 C,0,0.4513165347,3.3283226368,0.0699001973
 C,0,-0.3932964323,-0.476495865,-0.4454966834
 C,0,-0.2490418962,-1.7384844135,0.448664809
 C,0,2.495185375,2.3249753212,-0.9285752375
 C,0,1.9398303203,3.1492694323,0.232854489
 C,0,1.1715987999,-2.3344137125,0.4298682066
 C,0,-1.0996204828,2.6286473467,-1.1954373812
 C,0,2.7686185053,-0.1166630704,-1.0433777532
 C,0,-0.7099023102,-1.5279607529,1.8975890361
 C,0,2.0706834159,-1.2926068365,1.0993007071
 C,0,1.2390584513,0.9499708299,-2.6624125963
 C,0,3.2024300245,-0.6756451196,0.3315009662
 C,0,0.3649859181,-1.0181066113,2.8966337739
 C,0,1.7498892303,-0.8171431823,2.2935687243
 C,0,1.2438010276,-3.6336482667,1.2756634748
 C,0,1.5726896004,-2.7669460966,-0.9984136696
 C,0,2.6230938815,0.105933491,3.127836266
 C,0,-2.4049016536,2.0988248378,1.5630509436
 C,0,-2.5923270007,-0.3953100953,-1.4521379885
 C,0,-2.6921984603,1.9736410908,3.0342150736
 C,0,5.4700956718,-1.170567073,-0.2581655226
 C,0,-4.0115150623,-0.6322096185,-1.135158687
 C,0,6.3230028463,-2.2629346735,-0.8189834352
 C,0,-4.8819018346,-0.8002756933,-2.2003619112
 C,0,-4.4763191521,-0.7071407943,0.1656466366
 C,0,-6.2206886017,-1.0409072866,-1.9652093486
 C,0,-5.8158367093,-0.950246491,0.4011281722
 C,0,-6.6870752997,-1.115458149,-0.6628711136
 H,0,0.9265137225,0.6582534382,0.8101200235
 H,0,0.0276905816,4.0606543934,0.739240353
 H,0,-0.2373555638,-0.8031085547,-1.4514855826
 H,0,3.5234168023,2.068504901,-0.7237309914
 H,0,2.1273058438,2.6736581059,1.188208007
 H,0,2.4494738854,4.1038150664,0.2249145747
 H,0,-1.194813866,1.9857235247,-2.0469891442
 H,0,-2.0101363006,3.1408470779,-0.9705467723
 H,0,-1.088093686,-2.4766015236,2.2594123574
 H,0,-1.5354810538,-0.8377934746,1.9011885791
 H,0,0.6179143931,1.7943250161,-2.8912378407
 H,0,2.1186669921,1.0088452612,-3.2770936115
 H,0,0.7007814453,0.0496987364,-2.9168708892
 H,0,3.6344813076,0.1435477271,0.8814440555
 H,0,0.4218421686,-1.6850863031,3.7439062166
 H,0,2.2490196819,-4.0305575216,1.2068838699
 H,0,1.0266812282,-3.4652434809,2.3203570909
 H,0,0.5600818527,-4.3790679289,0.8846795228
 H,0,2.6169601206,-3.0362674498,-1.0196060462
 H,0,0.9673247509,-3.6195812501,-1.269401027
 H,0,1.4079516928,-2.0166280002,-1.7518732006
 H,0,-1.4478028118,-3.3611649266,0.335579687
 H,0,1.6884176544,3.5594783935,-2.2239710254
 H,0,2.4062502481,1.151002904,2.938145762
 H,0,2.417890199,-0.0640756382,4.1761085407
 H,0,3.674440042,-0.0716461495,2.9544604659
 H,0,-0.2266133304,0.8885731016,2.7598963367
 H,0,-3.7593062525,1.9153841483,3.1797763635
 H,0,-2.1852289562,1.1241296611,3.4620795281
 H,0,-2.3176444097,2.8614845715,3.5344848363
 H,0,5.9147400663,-2.5435496838,-1.7828061491
 H,0,6.2855501458,-3.1277167585,-0.1708814952
 H,0,7.3365076988,-1.9144158602,-0.9356408782
 H,0,-4.495092783,-0.7420151124,-3.1966853365
 H,0,-3.7954919705,-0.5764783463,0.9765915734
 H,0,-6.895321118,-1.1695099268,-2.7873118707
 H,0,-6.1809732377,-1.0083706371,1.4067895832
 H,0,-7.7263893083,-1.3016292905,-0.4774405782
 Recover connectivity data from disk.

 GradGradGradGradGradGradGradGradGradGradGradGradGradGradGradGradGradGrad
 Berny optimization.
 Initialization pass.
                           ----------------------------
                           !    Initial Parameters    !
                           ! (Angstroms and Degrees)  !
 --------------------------                            --------------------------
 ! Name  Definition              Value          Derivative Info.                !
 --------------------------------------------------------------------------------
 ! R1    R(1,15)                 1.4825         estimate D2E/DX2                !
 ! R2    R(1,21)                 1.4917         estimate D2E/DX2                !
 ! R3    R(2,13)                 1.4547         estimate D2E/DX2                !
 ! R4    R(2,32)                 1.3722         estimate D2E/DX2                !
 ! R5    R(3,16)                 1.4653         estimate D2E/DX2                !
 ! R6    R(3,33)                 1.3634         estimate D2E/DX2                !
 ! R7    R(4,17)                 1.4496         estimate D2E/DX2                !
 ! R8    R(4,64)                 0.9642         estimate D2E/DX2                !
 ! R9    R(5,18)                 1.4289         estimate D2E/DX2                !
 ! R10   R(5,65)                 0.9711         estimate D2E/DX2                !
 ! R11   R(6,26)                 1.4435         estimate D2E/DX2                !
 ! R12   R(6,35)                 1.3681         estimate D2E/DX2                !
 ! R13   R(7,22)                 1.2091         estimate D2E/DX2                !
 ! R14   R(8,27)                 1.4497         estimate D2E/DX2                !
 ! R15   R(8,69)                 0.9707         estimate D2E/DX2                !
 ! R16   R(9,32)                 1.1984         estimate D2E/DX2                !
 ! R17   R(10,33)                1.2074         estimate D2E/DX2                !
 ! R18   R(11,35)                1.2018         estimate D2E/DX2                !
 ! R19   R(12,13)                1.5377         estimate D2E/DX2                !
 ! R20   R(12,14)                1.5805         estimate D2E/DX2                !
 ! R21   R(12,16)                1.5645         estimate D2E/DX2                !
 ! R22   R(12,43)                1.0682         estimate D2E/DX2                !
 ! R23   R(13,15)                1.538          estimate D2E/DX2                !
 ! R24   R(13,21)                1.5497         estimate D2E/DX2                !
 ! R25   R(14,18)                1.6081         estimate D2E/DX2                !
 ! R26   R(14,22)                1.549          estimate D2E/DX2                !
 ! R27   R(14,25)                1.5447         estimate D2E/DX2                !
 ! R28   R(15,19)                1.5081         estimate D2E/DX2                !
 ! R29   R(15,44)                1.0788         estimate D2E/DX2                !
 ! R30   R(16,17)                1.5534         estimate D2E/DX2                !
 ! R31   R(16,45)                1.0691         estimate D2E/DX2                !
 ! R32   R(17,20)                1.5407         estimate D2E/DX2                !
 ! R33   R(17,23)                1.535          estimate D2E/DX2                !
 ! R34   R(18,19)                1.5287         estimate D2E/DX2                !
 ! R35   R(18,46)                1.0794         estimate D2E/DX2                !
 ! R36   R(19,47)                1.0835         estimate D2E/DX2                !
 ! R37   R(19,48)                1.0821         estimate D2E/DX2                !
 ! R38   R(20,24)                1.5303         estimate D2E/DX2                !
 ! R39   R(20,29)                1.552          estimate D2E/DX2                !
 ! R40   R(20,30)                1.5453         estimate D2E/DX2                !
 ! R41   R(21,49)                1.0712         estimate D2E/DX2                !
 ! R42   R(21,50)                1.0686         estimate D2E/DX2                !
 ! R43   R(22,26)                1.5463         estimate D2E/DX2                !
 ! R44   R(23,27)                1.5535         estimate D2E/DX2                !
 ! R45   R(23,51)                1.0835         estimate D2E/DX2                !
 ! R46   R(23,52)                1.0761         estimate D2E/DX2                !
 ! R47   R(24,26)                1.5003         estimate D2E/DX2                !
 ! R48   R(24,28)                1.3249         estimate D2E/DX2                !
 ! R49   R(25,53)                1.0729         estimate D2E/DX2                !
 ! R50   R(25,54)                1.0747         estimate D2E/DX2                !
 ! R51   R(25,55)                1.0793         estimate D2E/DX2                !
 ! R52   R(26,56)                1.0771         estimate D2E/DX2                !
 ! R53   R(27,28)                1.5238         estimate D2E/DX2                !
 ! R54   R(27,57)                1.0798         estimate D2E/DX2                !
 ! R55   R(28,31)                1.5201         estimate D2E/DX2                !
 ! R56   R(29,58)                1.0829         estimate D2E/DX2                !
 ! R57   R(29,59)                1.0802         estimate D2E/DX2                !
 ! R58   R(29,60)                1.0844         estimate D2E/DX2                !
 ! R59   R(30,61)                1.0786         estimate D2E/DX2                !
 ! R60   R(30,62)                1.0802         estimate D2E/DX2                !
 ! R61   R(30,63)                1.076          estimate D2E/DX2                !
 ! R62   R(31,66)                1.0841         estimate D2E/DX2                !
 ! R63   R(31,67)                1.0816         estimate D2E/DX2                !
 ! R64   R(31,68)                1.0802         estimate D2E/DX2                !
 ! R65   R(32,34)                1.5042         estimate D2E/DX2                !
 ! R66   R(33,36)                1.4733         estimate D2E/DX2                !
 ! R67   R(34,70)                1.0786         estimate D2E/DX2                !
 ! R68   R(34,71)                1.0778         estimate D2E/DX2                !
 ! R69   R(34,72)                1.0857         estimate D2E/DX2                !
 ! R70   R(35,37)                1.4951         estimate D2E/DX2                !
 ! R71   R(36,38)                1.3858         estimate D2E/DX2                !
 ! R72   R(36,39)                1.3834         estimate D2E/DX2                !
 ! R73   R(37,73)                1.0837         estimate D2E/DX2                !
 ! R74   R(37,74)                1.0813         estimate D2E/DX2                !
 ! R75   R(37,75)                1.0781         estimate D2E/DX2                !
 ! R76   R(38,40)                1.3804         estimate D2E/DX2                !
 ! R77   R(38,76)                1.0704         estimate D2E/DX2                !
 ! R78   R(39,41)                1.3816         estimate D2E/DX2                !
 ! R79   R(39,77)                1.0669         estimate D2E/DX2                !
 ! R80   R(40,42)                1.3853         estimate D2E/DX2                !
 ! R81   R(40,78)                1.0712         estimate D2E/DX2                !
 ! R82   R(41,42)                1.3851         estimate D2E/DX2                !
 ! R83   R(41,79)                1.0715         estimate D2E/DX2                !
 ! R84   R(42,80)                1.072          estimate D2E/DX2                !
 ! A1    A(15,1,21)             90.9447         estimate D2E/DX2                !
 ! A2    A(13,2,32)            126.4633         estimate D2E/DX2                !
 ! A3    A(16,3,33)            117.577          estimate D2E/DX2                !
 ! A4    A(17,4,64)            112.1053         estimate D2E/DX2                !
 ! A5    A(18,5,65)            108.2334         estimate D2E/DX2                !
 ! A6    A(26,6,35)            116.7792         estimate D2E/DX2                !
 ! A7    A(27,8,69)            109.9459         estimate D2E/DX2                !
 ! A8    A(13,12,14)           114.6159         estimate D2E/DX2                !
 ! A9    A(13,12,16)           111.4413         estimate D2E/DX2                !
 ! A10   A(13,12,43)           102.4258         estimate D2E/DX2                !
 ! A11   A(14,12,16)           113.0572         estimate D2E/DX2                !
 ! A12   A(14,12,43)           106.659          estimate D2E/DX2                !
 ! A13   A(16,12,43)           107.7222         estimate D2E/DX2                !
 ! A14   A(2,13,12)            105.9919         estimate D2E/DX2                !
 ! A15   A(2,13,15)            110.9264         estimate D2E/DX2                !
 ! A16   A(2,13,21)            121.923          estimate D2E/DX2                !
 ! A17   A(12,13,15)           112.1219         estimate D2E/DX2                !
 ! A18   A(12,13,21)           117.7212         estimate D2E/DX2                !
 ! A19   A(15,13,21)            86.7423         estimate D2E/DX2                !
 ! A20   A(12,14,18)           112.3851         estimate D2E/DX2                !
 ! A21   A(12,14,22)           113.3172         estimate D2E/DX2                !
 ! A22   A(12,14,25)           114.3489         estimate D2E/DX2                !
 ! A23   A(18,14,22)           102.3332         estimate D2E/DX2                !
 ! A24   A(18,14,25)           107.6065         estimate D2E/DX2                !
 ! A25   A(22,14,25)           105.9259         estimate D2E/DX2                !
 ! A26   A(1,15,13)             88.9915         estimate D2E/DX2                !
 ! A27   A(1,15,19)            113.8681         estimate D2E/DX2                !
 ! A28   A(1,15,44)            110.4592         estimate D2E/DX2                !
 ! A29   A(13,15,19)           116.1006         estimate D2E/DX2                !
 ! A30   A(13,15,44)           111.343          estimate D2E/DX2                !
 ! A31   A(19,15,44)           113.6501         estimate D2E/DX2                !
 ! A32   A(3,16,12)            110.2833         estimate D2E/DX2                !
 ! A33   A(3,16,17)            104.1385         estimate D2E/DX2                !
 ! A34   A(3,16,45)            105.46           estimate D2E/DX2                !
 ! A35   A(12,16,17)           119.7496         estimate D2E/DX2                !
 ! A36   A(12,16,45)           109.9378         estimate D2E/DX2                !
 ! A37   A(17,16,45)           106.2543         estimate D2E/DX2                !
 ! A38   A(4,17,16)             99.9169         estimate D2E/DX2                !
 ! A39   A(4,17,20)            109.9509         estimate D2E/DX2                !
 ! A40   A(4,17,23)            109.5784         estimate D2E/DX2                !
 ! A41   A(16,17,20)           113.1318         estimate D2E/DX2                !
 ! A42   A(16,17,23)           113.832          estimate D2E/DX2                !
 ! A43   A(20,17,23)           109.9632         estimate D2E/DX2                !
 ! A44   A(5,18,14)            112.7112         estimate D2E/DX2                !
 ! A45   A(5,18,19)            108.7822         estimate D2E/DX2                !
 ! A46   A(5,18,46)            104.3972         estimate D2E/DX2                !
 ! A47   A(14,18,19)           112.7926         estimate D2E/DX2                !
 ! A48   A(14,18,46)           108.513          estimate D2E/DX2                !
 ! A49   A(19,18,46)           109.2703         estimate D2E/DX2                !
 ! A50   A(15,19,18)           109.9079         estimate D2E/DX2                !
 ! A51   A(15,19,47)           108.552          estimate D2E/DX2                !
 ! A52   A(15,19,48)           111.0595         estimate D2E/DX2                !
 ! A53   A(18,19,47)           111.7366         estimate D2E/DX2                !
 ! A54   A(18,19,48)           107.3966         estimate D2E/DX2                !
 ! A55   A(47,19,48)           108.1907         estimate D2E/DX2                !
 ! A56   A(17,20,24)           105.8477         estimate D2E/DX2                !
 ! A57   A(17,20,29)           111.1037         estimate D2E/DX2                !
 ! A58   A(17,20,30)           111.031          estimate D2E/DX2                !
 ! A59   A(24,20,29)           107.7091         estimate D2E/DX2                !
 ! A60   A(24,20,30)           116.2559         estimate D2E/DX2                !
 ! A61   A(29,20,30)           104.911          estimate D2E/DX2                !
 ! A62   A(1,21,13)             88.219          estimate D2E/DX2                !
 ! A63   A(1,21,49)            112.7666         estimate D2E/DX2                !
 ! A64   A(1,21,50)            110.6068         estimate D2E/DX2                !
 ! A65   A(13,21,49)           116.762          estimate D2E/DX2                !
 ! A66   A(13,21,50)           113.9161         estimate D2E/DX2                !
 ! A67   A(49,21,50)           112.2866         estimate D2E/DX2                !
 ! A68   A(7,22,14)            119.9535         estimate D2E/DX2                !
 ! A69   A(7,22,26)            117.5821         estimate D2E/DX2                !
 ! A70   A(14,22,26)           121.9997         estimate D2E/DX2                !
 ! A71   A(17,23,27)           116.3794         estimate D2E/DX2                !
 ! A72   A(17,23,51)           107.4548         estimate D2E/DX2                !
 ! A73   A(17,23,52)           108.7522         estimate D2E/DX2                !
 ! A74   A(27,23,51)           108.3073         estimate D2E/DX2                !
 ! A75   A(27,23,52)           108.5538         estimate D2E/DX2                !
 ! A76   A(51,23,52)           107.0167         estimate D2E/DX2                !
 ! A77   A(20,24,26)           119.9513         estimate D2E/DX2                !
 ! A78   A(20,24,28)           119.7614         estimate D2E/DX2                !
 ! A79   A(26,24,28)           119.7609         estimate D2E/DX2                !
 ! A80   A(14,25,53)           110.9539         estimate D2E/DX2                !
 ! A81   A(14,25,54)           108.6573         estimate D2E/DX2                !
 ! A82   A(14,25,55)           112.0281         estimate D2E/DX2                !
 ! A83   A(53,25,54)           107.9834         estimate D2E/DX2                !
 ! A84   A(53,25,55)           108.5066         estimate D2E/DX2                !
 ! A85   A(54,25,55)           108.604          estimate D2E/DX2                !
 ! A86   A(6,26,22)            106.7251         estimate D2E/DX2                !
 ! A87   A(6,26,24)            110.5719         estimate D2E/DX2                !
 ! A88   A(6,26,56)            108.5637         estimate D2E/DX2                !
 ! A89   A(22,26,24)           113.0824         estimate D2E/DX2                !
 ! A90   A(22,26,56)           106.9522         estimate D2E/DX2                !
 ! A91   A(24,26,56)           110.7344         estimate D2E/DX2                !
 ! A92   A(8,27,23)            109.9234         estimate D2E/DX2                !
 ! A93   A(8,27,28)            107.5873         estimate D2E/DX2                !
 ! A94   A(8,27,57)            104.2033         estimate D2E/DX2                !
 ! A95   A(23,27,28)           114.6834         estimate D2E/DX2                !
 ! A96   A(23,27,57)           109.7741         estimate D2E/DX2                !
 ! A97   A(28,27,57)           110.1294         estimate D2E/DX2                !
 ! A98   A(24,28,27)           121.9703         estimate D2E/DX2                !
 ! A99   A(24,28,31)           125.0003         estimate D2E/DX2                !
 ! A100  A(27,28,31)           112.6416         estimate D2E/DX2                !
 ! A101  A(20,29,58)           108.385          estimate D2E/DX2                !
 ! A102  A(20,29,59)           112.7802         estimate D2E/DX2                !
 ! A103  A(20,29,60)           110.4643         estimate D2E/DX2                !
 ! A104  A(58,29,59)           107.7663         estimate D2E/DX2                !
 ! A105  A(58,29,60)           108.0839         estimate D2E/DX2                !
 ! A106  A(59,29,60)           109.2154         estimate D2E/DX2                !
 ! A107  A(20,30,61)           109.836          estimate D2E/DX2                !
 ! A108  A(20,30,62)           107.8989         estimate D2E/DX2                !
 ! A109  A(20,30,63)           114.3487         estimate D2E/DX2                !
 ! A110  A(61,30,62)           109.9096         estimate D2E/DX2                !
 ! A111  A(61,30,63)           107.973          estimate D2E/DX2                !
 ! A112  A(62,30,63)           106.7943         estimate D2E/DX2                !
 ! A113  A(28,31,66)           111.9923         estimate D2E/DX2                !
 ! A114  A(28,31,67)           109.1163         estimate D2E/DX2                !
 ! A115  A(28,31,68)           111.7881         estimate D2E/DX2                !
 ! A116  A(66,31,67)           106.4493         estimate D2E/DX2                !
 ! A117  A(66,31,68)           108.97           estimate D2E/DX2                !
 ! A118  A(67,31,68)           108.322          estimate D2E/DX2                !
 ! A119  A(2,32,9)             123.7001         estimate D2E/DX2                !
 ! A120  A(2,32,34)            110.3409         estimate D2E/DX2                !
 ! A121  A(9,32,34)            125.9281         estimate D2E/DX2                !
 ! A122  A(3,33,10)            121.4185         estimate D2E/DX2                !
 ! A123  A(3,33,36)            113.9627         estimate D2E/DX2                !
 ! A124  A(10,33,36)           124.5814         estimate D2E/DX2                !
 ! A125  A(32,34,70)           108.9936         estimate D2E/DX2                !
 ! A126  A(32,34,71)           111.3465         estimate D2E/DX2                !
 ! A127  A(32,34,72)           108.4639         estimate D2E/DX2                !
 ! A128  A(70,34,71)           111.6671         estimate D2E/DX2                !
 ! A129  A(70,34,72)           108.8624         estimate D2E/DX2                !
 ! A130  A(71,34,72)           107.4176         estimate D2E/DX2                !
 ! A131  A(6,35,11)            121.5539         estimate D2E/DX2                !
 ! A132  A(6,35,37)            110.4685         estimate D2E/DX2                !
 ! A133  A(11,35,37)           127.9753         estimate D2E/DX2                !
 ! A134  A(33,36,38)           117.3303         estimate D2E/DX2                !
 ! A135  A(33,36,39)           122.3206         estimate D2E/DX2                !
 ! A136  A(38,36,39)           120.3427         estimate D2E/DX2                !
 ! A137  A(35,37,73)           107.9326         estimate D2E/DX2                !
 ! A138  A(35,37,74)           109.8611         estimate D2E/DX2                !
 ! A139  A(35,37,75)           109.9193         estimate D2E/DX2                !
 ! A140  A(73,37,74)           108.2356         estimate D2E/DX2                !
 ! A141  A(73,37,75)           109.9768         estimate D2E/DX2                !
 ! A142  A(74,37,75)           110.8517         estimate D2E/DX2                !
 ! A143  A(36,38,40)           119.9557         estimate D2E/DX2                !
 ! A144  A(36,38,76)           118.81           estimate D2E/DX2                !
 ! A145  A(40,38,76)           121.2342         estimate D2E/DX2                !
 ! A146  A(36,39,41)           119.706          estimate D2E/DX2                !
 ! A147  A(36,39,77)           119.5834         estimate D2E/DX2                !
 ! A148  A(41,39,77)           120.7106         estimate D2E/DX2                !
 ! A149  A(38,40,42)           119.7377         estimate D2E/DX2                !
 ! A150  A(38,40,78)           120.0648         estimate D2E/DX2                !
 ! A151  A(42,40,78)           120.1975         estimate D2E/DX2                !
 ! A152  A(39,41,42)           119.994          estimate D2E/DX2                !
 ! A153  A(39,41,79)           119.9942         estimate D2E/DX2                !
 ! A154  A(42,41,79)           120.0116         estimate D2E/DX2                !
 ! A155  A(40,42,41)           120.2636         estimate D2E/DX2                !
 ! A156  A(40,42,80)           119.8906         estimate D2E/DX2                !
 ! A157  A(41,42,80)           119.8458         estimate D2E/DX2                !
 ! D1    D(21,1,15,13)          17.3542         estimate D2E/DX2                !
 ! D2    D(21,1,15,19)         135.608          estimate D2E/DX2                !
 ! D3    D(21,1,15,44)         -95.1001         estimate D2E/DX2                !
 ! D4    D(15,1,21,13)         -17.225          estimate D2E/DX2                !
 ! D5    D(15,1,21,49)        -135.6181         estimate D2E/DX2                !
 ! D6    D(15,1,21,50)          97.7124         estimate D2E/DX2                !
 ! D7    D(32,2,13,12)        -135.9014         estimate D2E/DX2                !
 ! D8    D(32,2,13,15)         102.1611         estimate D2E/DX2                !
 ! D9    D(32,2,13,21)           2.5739         estimate D2E/DX2                !
 ! D10   D(13,2,32,9)            6.6016         estimate D2E/DX2                !
 ! D11   D(13,2,32,34)        -171.479          estimate D2E/DX2                !
 ! D12   D(33,3,16,12)         123.5707         estimate D2E/DX2                !
 ! D13   D(33,3,16,17)        -106.7391         estimate D2E/DX2                !
 ! D14   D(33,3,16,45)           4.9241         estimate D2E/DX2                !
 ! D15   D(16,3,33,10)         -28.9286         estimate D2E/DX2                !
 ! D16   D(16,3,33,36)         153.1979         estimate D2E/DX2                !
 ! D17   D(64,4,17,16)        -160.5508         estimate D2E/DX2                !
 ! D18   D(64,4,17,20)          80.2575         estimate D2E/DX2                !
 ! D19   D(64,4,17,23)         -40.7137         estimate D2E/DX2                !
 ! D20   D(65,5,18,14)          73.4402         estimate D2E/DX2                !
 ! D21   D(65,5,18,19)         -52.4277         estimate D2E/DX2                !
 ! D22   D(65,5,18,46)        -168.9913         estimate D2E/DX2                !
 ! D23   D(35,6,26,22)          75.0388         estimate D2E/DX2                !
 ! D24   D(35,6,26,24)        -161.5918         estimate D2E/DX2                !
 ! D25   D(35,6,26,56)         -39.9271         estimate D2E/DX2                !
 ! D26   D(26,6,35,11)          14.6714         estimate D2E/DX2                !
 ! D27   D(26,6,35,37)        -165.8381         estimate D2E/DX2                !
 ! D28   D(69,8,27,23)         -56.1088         estimate D2E/DX2                !
 ! D29   D(69,8,27,28)          69.4023         estimate D2E/DX2                !
 ! D30   D(69,8,27,57)        -173.6854         estimate D2E/DX2                !
 ! D31   D(14,12,13,2)        -160.3126         estimate D2E/DX2                !
 ! D32   D(14,12,13,15)        -39.1429         estimate D2E/DX2                !
 ! D33   D(14,12,13,21)         59.1547         estimate D2E/DX2                !
 ! D34   D(16,12,13,2)          69.6889         estimate D2E/DX2                !
 ! D35   D(16,12,13,15)       -169.1414         estimate D2E/DX2                !
 ! D36   D(16,12,13,21)        -70.8439         estimate D2E/DX2                !
 ! D37   D(43,12,13,2)         -45.2349         estimate D2E/DX2                !
 ! D38   D(43,12,13,15)         75.9348         estimate D2E/DX2                !
 ! D39   D(43,12,13,21)        174.2324         estimate D2E/DX2                !
 ! D40   D(13,12,14,18)         46.6819         estimate D2E/DX2                !
 ! D41   D(13,12,14,22)        162.0906         estimate D2E/DX2                !
 ! D42   D(13,12,14,25)        -76.3738         estimate D2E/DX2                !
 ! D43   D(16,12,14,18)        175.8813         estimate D2E/DX2                !
 ! D44   D(16,12,14,22)        -68.7101         estimate D2E/DX2                !
 ! D45   D(16,12,14,25)         52.8255         estimate D2E/DX2                !
 ! D46   D(43,12,14,18)        -65.9093         estimate D2E/DX2                !
 ! D47   D(43,12,14,22)         49.4993         estimate D2E/DX2                !
 ! D48   D(43,12,14,25)        171.0349         estimate D2E/DX2                !
 ! D49   D(13,12,16,3)          -3.7542         estimate D2E/DX2                !
 ! D50   D(13,12,16,17)       -124.4965         estimate D2E/DX2                !
 ! D51   D(13,12,16,45)        112.1182         estimate D2E/DX2                !
 ! D52   D(14,12,16,3)        -134.5618         estimate D2E/DX2                !
 ! D53   D(14,12,16,17)        104.6959         estimate D2E/DX2                !
 ! D54   D(14,12,16,45)        -18.6894         estimate D2E/DX2                !
 ! D55   D(43,12,16,3)         107.8501         estimate D2E/DX2                !
 ! D56   D(43,12,16,17)        -12.8921         estimate D2E/DX2                !
 ! D57   D(43,12,16,45)       -136.2775         estimate D2E/DX2                !
 ! D58   D(2,13,15,1)         -139.7543         estimate D2E/DX2                !
 ! D59   D(2,13,15,19)         104.0124         estimate D2E/DX2                !
 ! D60   D(2,13,15,44)         -28.1339         estimate D2E/DX2                !
 ! D61   D(12,13,15,1)         101.9618         estimate D2E/DX2                !
 ! D62   D(12,13,15,19)        -14.2715         estimate D2E/DX2                !
 ! D63   D(12,13,15,44)       -146.4177         estimate D2E/DX2                !
 ! D64   D(21,13,15,1)         -16.7112         estimate D2E/DX2                !
 ! D65   D(21,13,15,19)       -132.9445         estimate D2E/DX2                !
 ! D66   D(21,13,15,44)         94.9093         estimate D2E/DX2                !
 ! D67   D(2,13,21,1)          129.3187         estimate D2E/DX2                !
 ! D68   D(2,13,21,49)        -115.9773         estimate D2E/DX2                !
 ! D69   D(2,13,21,50)          17.5163         estimate D2E/DX2                !
 ! D70   D(12,13,21,1)         -96.729          estimate D2E/DX2                !
 ! D71   D(12,13,21,49)         17.9749         estimate D2E/DX2                !
 ! D72   D(12,13,21,50)        151.4686         estimate D2E/DX2                !
 ! D73   D(15,13,21,1)          16.6108         estimate D2E/DX2                !
 ! D74   D(15,13,21,49)        131.3148         estimate D2E/DX2                !
 ! D75   D(15,13,21,50)        -95.1916         estimate D2E/DX2                !
 ! D76   D(12,14,18,5)        -124.4058         estimate D2E/DX2                !
 ! D77   D(12,14,18,19)         -0.7313         estimate D2E/DX2                !
 ! D78   D(12,14,18,46)        120.4817         estimate D2E/DX2                !
 ! D79   D(22,14,18,5)         113.7074         estimate D2E/DX2                !
 ! D80   D(22,14,18,19)       -122.6181         estimate D2E/DX2                !
 ! D81   D(22,14,18,46)         -1.4051         estimate D2E/DX2                !
 ! D82   D(25,14,18,5)           2.3574         estimate D2E/DX2                !
 ! D83   D(25,14,18,19)        126.0318         estimate D2E/DX2                !
 ! D84   D(25,14,18,46)       -112.7552         estimate D2E/DX2                !
 ! D85   D(12,14,22,7)         150.492          estimate D2E/DX2                !
 ! D86   D(12,14,22,26)        -37.5201         estimate D2E/DX2                !
 ! D87   D(18,14,22,7)         -88.2606         estimate D2E/DX2                !
 ! D88   D(18,14,22,26)         83.7273         estimate D2E/DX2                !
 ! D89   D(25,14,22,7)          24.3441         estimate D2E/DX2                !
 ! D90   D(25,14,22,26)       -163.668          estimate D2E/DX2                !
 ! D91   D(12,14,25,53)         65.4065         estimate D2E/DX2                !
 ! D92   D(12,14,25,54)       -176.0229         estimate D2E/DX2                !
 ! D93   D(12,14,25,55)        -56.0328         estimate D2E/DX2                !
 ! D94   D(18,14,25,53)        -60.1966         estimate D2E/DX2                !
 ! D95   D(18,14,25,54)         58.3741         estimate D2E/DX2                !
 ! D96   D(18,14,25,55)        178.3641         estimate D2E/DX2                !
 ! D97   D(22,14,25,53)       -169.0769         estimate D2E/DX2                !
 ! D98   D(22,14,25,54)        -50.5062         estimate D2E/DX2                !
 ! D99   D(22,14,25,55)         69.4839         estimate D2E/DX2                !
 ! D100  D(1,15,19,18)         -40.6822         estimate D2E/DX2                !
 ! D101  D(1,15,19,47)        -163.1623         estimate D2E/DX2                !
 ! D102  D(1,15,19,48)          78.0159         estimate D2E/DX2                !
 ! D103  D(13,15,19,18)         60.5824         estimate D2E/DX2                !
 ! D104  D(13,15,19,47)        -61.8977         estimate D2E/DX2                !
 ! D105  D(13,15,19,48)        179.2805         estimate D2E/DX2                !
 ! D106  D(44,15,19,18)       -168.3473         estimate D2E/DX2                !
 ! D107  D(44,15,19,47)         69.1726         estimate D2E/DX2                !
 ! D108  D(44,15,19,48)        -49.6492         estimate D2E/DX2                !
 ! D109  D(3,16,17,4)           59.1846         estimate D2E/DX2                !
 ! D110  D(3,16,17,20)         176.0156         estimate D2E/DX2                !
 ! D111  D(3,16,17,23)         -57.5023         estimate D2E/DX2                !
 ! D112  D(12,16,17,4)        -177.0544         estimate D2E/DX2                !
 ! D113  D(12,16,17,20)        -60.2235         estimate D2E/DX2                !
 ! D114  D(12,16,17,23)         66.2586         estimate D2E/DX2                !
 ! D115  D(45,16,17,4)         -51.902          estimate D2E/DX2                !
 ! D116  D(45,16,17,20)         64.9289         estimate D2E/DX2                !
 ! D117  D(45,16,17,23)       -168.589          estimate D2E/DX2                !
 ! D118  D(4,17,20,24)         177.1633         estimate D2E/DX2                !
 ! D119  D(4,17,20,29)         -66.1898         estimate D2E/DX2                !
 ! D120  D(4,17,20,30)          50.1626         estimate D2E/DX2                !
 ! D121  D(16,17,20,24)         66.4125         estimate D2E/DX2                !
 ! D122  D(16,17,20,29)       -176.9406         estimate D2E/DX2                !
 ! D123  D(16,17,20,30)        -60.5882         estimate D2E/DX2                !
 ! D124  D(23,17,20,24)        -62.0971         estimate D2E/DX2                !
 ! D125  D(23,17,20,29)         54.5499         estimate D2E/DX2                !
 ! D126  D(23,17,20,30)        170.9023         estimate D2E/DX2                !
 ! D127  D(4,17,23,27)         159.9083         estimate D2E/DX2                !
 ! D128  D(4,17,23,51)          38.3415         estimate D2E/DX2                !
 ! D129  D(4,17,23,52)         -77.1719         estimate D2E/DX2                !
 ! D130  D(16,17,23,27)        -89.1801         estimate D2E/DX2                !
 ! D131  D(16,17,23,51)        149.2532         estimate D2E/DX2                !
 ! D132  D(16,17,23,52)         33.7398         estimate D2E/DX2                !
 ! D133  D(20,17,23,27)         38.9445         estimate D2E/DX2                !
 ! D134  D(20,17,23,51)        -82.6222         estimate D2E/DX2                !
 ! D135  D(20,17,23,52)        161.8644         estimate D2E/DX2                !
 ! D136  D(5,18,19,15)          75.6059         estimate D2E/DX2                !
 ! D137  D(5,18,19,47)        -163.8186         estimate D2E/DX2                !
 ! D138  D(5,18,19,48)         -45.3223         estimate D2E/DX2                !
 ! D139  D(14,18,19,15)        -50.2147         estimate D2E/DX2                !
 ! D140  D(14,18,19,47)         70.3608         estimate D2E/DX2                !
 ! D141  D(14,18,19,48)       -171.1429         estimate D2E/DX2                !
 ! D142  D(46,18,19,15)       -170.9963         estimate D2E/DX2                !
 ! D143  D(46,18,19,47)        -50.4208         estimate D2E/DX2                !
 ! D144  D(46,18,19,48)         68.0755         estimate D2E/DX2                !
 ! D145  D(17,20,24,26)       -119.1814         estimate D2E/DX2                !
 ! D146  D(17,20,24,28)         52.4781         estimate D2E/DX2                !
 ! D147  D(29,20,24,26)        121.9014         estimate D2E/DX2                !
 ! D148  D(29,20,24,28)        -66.4392         estimate D2E/DX2                !
 ! D149  D(30,20,24,26)          4.598          estimate D2E/DX2                !
 ! D150  D(30,20,24,28)        176.2574         estimate D2E/DX2                !
 ! D151  D(17,20,29,58)        178.2444         estimate D2E/DX2                !
 ! D152  D(17,20,29,59)        -62.5248         estimate D2E/DX2                !
 ! D153  D(17,20,29,60)         60.0042         estimate D2E/DX2                !
 ! D154  D(24,20,29,58)        -66.2556         estimate D2E/DX2                !
 ! D155  D(24,20,29,59)         52.9751         estimate D2E/DX2                !
 ! D156  D(24,20,29,60)        175.5042         estimate D2E/DX2                !
 ! D157  D(30,20,29,58)         58.1882         estimate D2E/DX2                !
 ! D158  D(30,20,29,59)        177.419          estimate D2E/DX2                !
 ! D159  D(30,20,29,60)        -60.052          estimate D2E/DX2                !
 ! D160  D(17,20,30,61)        171.228          estimate D2E/DX2                !
 ! D161  D(17,20,30,62)        -68.9745         estimate D2E/DX2                !
 ! D162  D(17,20,30,63)         49.6739         estimate D2E/DX2                !
 ! D163  D(24,20,30,61)         50.1714         estimate D2E/DX2                !
 ! D164  D(24,20,30,62)        169.9689         estimate D2E/DX2                !
 ! D165  D(24,20,30,63)        -71.3828         estimate D2E/DX2                !
 ! D166  D(29,20,30,61)        -68.6675         estimate D2E/DX2                !
 ! D167  D(29,20,30,62)         51.13           estimate D2E/DX2                !
 ! D168  D(29,20,30,63)        169.7783         estimate D2E/DX2                !
 ! D169  D(7,22,26,6)           -7.7219         estimate D2E/DX2                !
 ! D170  D(7,22,26,24)        -129.5178         estimate D2E/DX2                !
 ! D171  D(7,22,26,56)         108.3257         estimate D2E/DX2                !
 ! D172  D(14,22,26,6)        -179.8909         estimate D2E/DX2                !
 ! D173  D(14,22,26,24)         58.3131         estimate D2E/DX2                !
 ! D174  D(14,22,26,56)        -63.8434         estimate D2E/DX2                !
 ! D175  D(17,23,27,8)         120.42           estimate D2E/DX2                !
 ! D176  D(17,23,27,28)         -0.9322         estimate D2E/DX2                !
 ! D177  D(17,23,27,57)       -125.523          estimate D2E/DX2                !
 ! D178  D(51,23,27,8)        -118.4649         estimate D2E/DX2                !
 ! D179  D(51,23,27,28)        120.1829         estimate D2E/DX2                !
 ! D180  D(51,23,27,57)         -4.4079         estimate D2E/DX2                !
 ! D181  D(52,23,27,8)          -2.6031         estimate D2E/DX2                !
 ! D182  D(52,23,27,28)       -123.9553         estimate D2E/DX2                !
 ! D183  D(52,23,27,57)        111.4539         estimate D2E/DX2                !
 ! D184  D(20,24,26,6)         -68.7762         estimate D2E/DX2                !
 ! D185  D(20,24,26,22)         50.8329         estimate D2E/DX2                !
 ! D186  D(20,24,26,56)        170.848          estimate D2E/DX2                !
 ! D187  D(28,24,26,6)         119.5643         estimate D2E/DX2                !
 ! D188  D(28,24,26,22)       -120.8266         estimate D2E/DX2                !
 ! D189  D(28,24,26,56)         -0.8115         estimate D2E/DX2                !
 ! D190  D(20,24,28,27)        -14.3529         estimate D2E/DX2                !
 ! D191  D(20,24,28,31)        173.3292         estimate D2E/DX2                !
 ! D192  D(26,24,28,27)        157.3225         estimate D2E/DX2                !
 ! D193  D(26,24,28,31)        -14.9954         estimate D2E/DX2                !
 ! D194  D(8,27,28,24)        -135.6219         estimate D2E/DX2                !
 ! D195  D(8,27,28,31)          37.5642         estimate D2E/DX2                !
 ! D196  D(23,27,28,24)        -12.9995         estimate D2E/DX2                !
 ! D197  D(23,27,28,31)        160.1866         estimate D2E/DX2                !
 ! D198  D(57,27,28,24)        111.4036         estimate D2E/DX2                !
 ! D199  D(57,27,28,31)        -75.4103         estimate D2E/DX2                !
 ! D200  D(24,28,31,66)         91.6505         estimate D2E/DX2                !
 ! D201  D(24,28,31,67)       -150.7561         estimate D2E/DX2                !
 ! D202  D(24,28,31,68)        -30.9646         estimate D2E/DX2                !
 ! D203  D(27,28,31,66)        -81.2917         estimate D2E/DX2                !
 ! D204  D(27,28,31,67)         36.3017         estimate D2E/DX2                !
 ! D205  D(27,28,31,68)        156.0932         estimate D2E/DX2                !
 ! D206  D(2,32,34,70)        -165.2551         estimate D2E/DX2                !
 ! D207  D(2,32,34,71)         -41.6301         estimate D2E/DX2                !
 ! D208  D(2,32,34,72)          76.3598         estimate D2E/DX2                !
 ! D209  D(9,32,34,70)          16.7169         estimate D2E/DX2                !
 ! D210  D(9,32,34,71)         140.3419         estimate D2E/DX2                !
 ! D211  D(9,32,34,72)        -101.6682         estimate D2E/DX2                !
 ! D212  D(3,33,36,38)         175.264          estimate D2E/DX2                !
 ! D213  D(3,33,36,39)          -5.6532         estimate D2E/DX2                !
 ! D214  D(10,33,36,38)         -2.5319         estimate D2E/DX2                !
 ! D215  D(10,33,36,39)        176.551          estimate D2E/DX2                !
 ! D216  D(6,35,37,73)          68.8243         estimate D2E/DX2                !
 ! D217  D(6,35,37,74)         -48.9897         estimate D2E/DX2                !
 ! D218  D(6,35,37,75)        -171.2282         estimate D2E/DX2                !
 ! D219  D(11,35,37,73)       -111.7265         estimate D2E/DX2                !
 ! D220  D(11,35,37,74)        130.4595         estimate D2E/DX2                !
 ! D221  D(11,35,37,75)          8.221          estimate D2E/DX2                !
 ! D222  D(33,36,38,40)        179.2446         estimate D2E/DX2                !
 ! D223  D(33,36,38,76)         -0.6108         estimate D2E/DX2                !
 ! D224  D(39,36,38,40)          0.1427         estimate D2E/DX2                !
 ! D225  D(39,36,38,76)       -179.7128         estimate D2E/DX2                !
 ! D226  D(33,36,39,41)       -179.0881         estimate D2E/DX2                !
 ! D227  D(33,36,39,77)          0.9062         estimate D2E/DX2                !
 ! D228  D(38,36,39,41)         -0.0322         estimate D2E/DX2                !
 ! D229  D(38,36,39,77)        179.9621         estimate D2E/DX2                !
 ! D230  D(36,38,40,42)         -0.111          estimate D2E/DX2                !
 ! D231  D(36,38,40,78)        179.9008         estimate D2E/DX2                !
 ! D232  D(76,38,40,42)        179.7408         estimate D2E/DX2                !
 ! D233  D(76,38,40,78)         -0.2473         estimate D2E/DX2                !
 ! D234  D(36,39,41,42)         -0.1089         estimate D2E/DX2                !
 ! D235  D(36,39,41,79)       -179.9475         estimate D2E/DX2                !
 ! D236  D(77,39,41,42)        179.8969         estimate D2E/DX2                !
 ! D237  D(77,39,41,79)          0.0583         estimate D2E/DX2                !
 ! D238  D(38,40,42,41)         -0.0299         estimate D2E/DX2                !
 ! D239  D(38,40,42,80)        179.9629         estimate D2E/DX2                !
 ! D240  D(78,40,42,41)        179.9582         estimate D2E/DX2                !
 ! D241  D(78,40,42,80)         -0.049          estimate D2E/DX2                !
 ! D242  D(39,41,42,40)          0.1404         estimate D2E/DX2                !
 ! D243  D(39,41,42,80)       -179.8524         estimate D2E/DX2                !
 ! D244  D(79,41,42,40)        179.979          estimate D2E/DX2                !
 ! D245  D(79,41,42,80)         -0.0138         estimate D2E/DX2                !
 --------------------------------------------------------------------------------
 Trust Radius=3.00D-01 FncErr=1.00D-07 GrdErr=1.00D-06 EigMax=2.50D+02 EigMin=1.00D-04
 Number of steps in this run=    480 maximum allowed number of steps=    480.
 GradGradGradGradGradGradGradGradGradGradGradGradGradGradGradGradGradGrad

 Stoichiometry    C31H38O11
 Framework group  C1[X(C31H38O11)]
 Deg. of freedom   234
 Full point group                 C1      NOp   1
 Largest Abelian subgroup         C1      NOp   1
 Largest concise Abelian subgroup C1      NOp   1
                         Standard orientation:                         
 ---------------------------------------------------------------------
 Center     Atomic      Atomic             Coordinates (Angstroms)
 Number     Number       Type             X           Y           Z
 ---------------------------------------------------------------------
      1          8           0       -0.282310    3.739107   -0.669682
      2          8           0       -1.238380    1.490634    1.627136
      3          8           0       -1.900851   -0.206687   -0.365419
      4          8           0       -1.115708   -2.641726   -0.686314
      5          8           0        2.253567    3.585027   -1.528536
      6          8           0        4.230949   -1.424904   -0.269970
      7          8           0        3.303949    0.082955   -2.099827
      8          8           0       -0.081043   -0.404519    3.451371
      9          8           0       -3.392648    2.026533    1.162697
     10          8           0       -2.248838   -0.072293   -2.577580
     11          8           0        5.664991    0.297730   -0.155473
     12          6           0        0.348102    0.797090   -0.020760
     13          6           0       -0.583760    1.942310    0.409059
     14          6           0        1.503108    1.224698   -1.011307
     15          6           0        0.183256    3.253190    0.651310
     16          6           0       -0.463367   -0.442163   -0.524230
     17          6           0       -0.232098   -1.832234    0.129350
     18          6           0        2.257614    2.561358   -0.531681
     19          6           0        1.682369    3.133662    0.763834
     20          6           0        1.218197   -2.333036   -0.010460
     21          6           0       -1.353152    2.701085   -0.701709
     22          6           0        2.661189    0.198419   -1.082305
     23          6           0       -0.673623   -1.908489    1.597456
     24          6           0        2.072880   -1.376547    0.824106
     25          6           0        1.042591    1.445622   -2.469086
     26          6           0        3.153193   -0.569519    0.166353
     27          6           0        0.392367   -1.522975    2.659751
     28          6           0        1.751477   -1.139355    2.087312
     29          6           0        1.378563   -3.755260    0.589669
     30          6           0        1.612574   -2.481988   -1.497143
     31          6           0        2.590206   -0.330206    3.063207
     32          6           0       -2.570208    1.617052    1.932181
     33          6           0       -2.683938   -0.310018   -1.476730
     34          6           0       -2.819720    1.216962    3.360539
     35          6           0        5.431745   -0.821424   -0.526255
     36          6           0       -4.081244   -0.680225   -1.191820
     37          6           0        6.331081   -1.746477   -1.281707
     38          6           0       -4.963067   -0.706492   -2.260547
     39          6           0       -4.514228   -1.010927    0.079759
     40          6           0       -6.281601   -1.061263   -2.057677
     41          6           0       -5.833350   -1.368230    0.282520
     42          6           0       -6.716153   -1.391954   -0.784505
     43          1           0        0.818409    0.525892    0.899164
     44          1           0       -0.265670    3.829866    1.444843
     45          1           0       -0.310744   -0.575906   -1.573909
     46          1           0        3.302311    2.331980   -0.386795
     47          1           0        1.915223    2.507852    1.617177
     48          1           0        2.138992    4.102115    0.920523
     49          1           0       -1.430808    2.214816   -1.653058
     50          1           0       -2.285358    3.112329   -0.379480
     51          1           0       -0.992007   -2.926306    1.788620
     52          1           0       -1.535315   -1.278318    1.732721
     53          1           0        0.371773    2.280171   -2.537254
     54          1           0        1.904764    1.662751   -3.072844
     55          1           0        0.548991    0.575341   -2.873994
     56          1           0        3.551286    0.162666    0.848709
     57          1           0        0.503008   -2.325142    3.374071
     58          1           0        2.402267   -4.075463    0.440561
     59          1           0        1.174284   -3.787320    1.649918
     60          1           0        0.728505   -4.457540    0.079553
     61          1           0        2.669300   -2.683029   -1.577128
     62          1           0        1.049063   -3.306380   -1.909116
     63          1           0        1.391639   -1.620741   -2.103161
     64          1           0       -1.342784   -3.475170   -0.258007
     65          1           0        1.358142    3.957560   -1.577862
     66          1           0        2.312880    0.717774    3.064955
     67          1           0        2.416328   -0.694713    4.066595
     68          1           0        3.645846   -0.413742    2.849738
     69          1           0       -0.304909    0.340700    2.871026
     70          1           0       -3.878825    1.072810    3.504817
     71          1           0       -2.258478    0.335543    3.624858
     72          1           0       -2.483795    2.022104    4.006857
     73          1           0        5.918828   -1.874815   -2.275666
     74          1           0        6.354220   -2.713102   -0.797573
     75          1           0        7.321464   -1.325330   -1.345291
     76          1           0       -4.600730   -0.450580   -3.234660
     77          1           0       -3.824873   -0.987222    0.893675
     78          1           0       -6.965114   -1.080613   -2.882270
     79          1           0       -6.173865   -1.624421    1.265614
     80          1           0       -7.739719   -1.667255   -0.624069
 ---------------------------------------------------------------------
 Rotational constants (GHZ):           0.1433175           0.0699805           0.0649757
 Standard basis: 3-21G* (6D, 7F)
 There are   454 symmetry adapted cartesian basis functions of A   symmetry.
 There are   454 symmetry adapted basis functions of A   symmetry.
   454 basis functions,   744 primitive gaussians,   454 cartesian basis functions
   156 alpha electrons      156 beta electrons
       nuclear repulsion energy      5968.5080519886 Hartrees.
 NAtoms=   80 NActive=   80 NUniq=   80 SFac= 1.00D+00 NAtFMM=   60 NAOKFM=T Big=T
 Integral buffers will be    131072 words long.
 Raffenetti 2 integral format.
 Two-electron integral symmetry is turned on.
 One-electron integrals computed using PRISM.
 NBasis=   454 RedAO= T EigKep=  1.43D-03  NBF=   454
 NBsUse=   454 1.00D-06 EigRej= -1.00D+00 NBFU=   454
 Initial guess from the read-write file.
 Requested convergence on RMS density matrix=1.00D-08 within 128 cycles.
 Requested convergence on MAX density matrix=1.00D-06.
 Requested convergence on             energy=1.00D-06.
 No special actions if energy rises.
 SCF Done:  E(RB3LYP) =  -2020.44271211     A.U. after   13 cycles
            NFock= 13  Conv=0.65D-08     -V/T= 2.0072

 **********************************************************************

            Population analysis using the SCF Density.

 **********************************************************************

 Orbital symmetries:
       Occupied  (A) (A) (A) (A) (A) (A) (A) (A) (A) (A) (A) (A)
                 (A) (A) (A) (A) (A) (A) (A) (A) (A) (A) (A) (A)
                 (A) (A) (A) (A) (A) (A) (A) (A) (A) (A) (A) (A)
                 (A) (A) (A) (A) (A) (A) (A) (A) (A) (A) (A) (A)
                 (A) (A) (A) (A) (A) (A) (A) (A) (A) (A) (A) (A)
                 (A) (A) (A) (A) (A) (A) (A) (A) (A) (A) (A) (A)
                 (A) (A) (A) (A) (A) (A) (A) (A) (A) (A) (A) (A)
                 (A) (A) (A) (A) (A) (A) (A) (A) (A) (A) (A) (A)
                 (A) (A) (A) (A) (A) (A) (A) (A) (A) (A) (A) (A)
                 (A) (A) (A) (A) (A) (A) (A) (A) (A) (A) (A) (A)
                 (A) (A) (A) (A) (A) (A) (A) (A) (A) (A) (A) (A)
                 (A) (A) (A) (A) (A) (A) (A) (A) (A) (A) (A) (A)
                 (A) (A) (A) (A) (A) (A) (A) (A) (A) (A) (A) (A)
       Virtual   (A) (A) (A) (A) (A) (A) (A) (A) (A) (A) (A) (A)
                 (A) (A) (A) (A) (A) (A) (A) (A) (A) (A) (A) (A)
                 (A) (A) (A) (A) (A) (A) (A) (A) (A) (A) (A) (A)
                 (A) (A) (A) (A) (A) (A) (A) (A) (A) (A) (A) (A)
                 (A) (A) (A) (A) (A) (A) (A) (A) (A) (A) (A) (A)
                 (A) (A) (A) (A) (A) (A) (A) (A) (A) (A) (A) (A)
                 (A) (A) (A) (A) (A) (A) (A) (A) (A) (A) (A) (A)
                 (A) (A) (A) (A) (A) (A) (A) (A) (A) (A) (A) (A)
                 (A) (A) (A) (A) (A) (A) (A) (A) (A) (A) (A) (A)
                 (A) (A) (A) (A) (A) (A) (A) (A) (A) (A) (A) (A)
                 (A) (A) (A) (A) (A) (A) (A) (A) (A) (A) (A) (A)
                 (A) (A) (A) (A) (A) (A) (A) (A) (A) (A) (A) (A)
                 (A) (A) (A) (A) (A) (A) (A) (A) (A) (A) (A) (A)
                 (A) (A) (A) (A) (A) (A) (A) (A) (A) (A) (A) (A)
                 (A) (A) (A) (A) (A) (A) (A) (A) (A) (A) (A) (A)
                 (A) (A) (A) (A) (A) (A) (A) (A) (A) (A) (A) (A)
                 (A) (A) (A) (A) (A) (A) (A) (A) (A) (A) (A) (A)
                 (A) (A) (A) (A) (A) (A) (A) (A) (A) (A) (A) (A)
                 (A) (A) (A) (A) (A) (A) (A) (A) (A) (A) (A) (A)
                 (A) (A) (A) (A) (A) (A) (A) (A) (A) (A) (A) (A)
                 (A) (A) (A) (A) (A) (A) (A) (A) (A) (A) (A) (A)
                 (A) (A) (A) (A) (A) (A) (A) (A) (A) (A) (A) (A)
                 (A) (A) (A) (A) (A) (A) (A) (A) (A) (A) (A) (A)
                 (A) (A) (A) (A) (A) (A) (A) (A) (A) (A) (A) (A)
                 (A) (A) (A) (A) (A) (A) (A) (A) (A) (A)
 The electronic state is 1-A.
 Alpha  occ. eigenvalues --  -19.10624 -19.08469 -19.07641 -19.05807 -19.04587
 Alpha  occ. eigenvalues --  -19.04285 -19.03740 -19.03429 -19.02948 -19.02649
 Alpha  occ. eigenvalues --  -19.00738 -10.27721 -10.26081 -10.25435 -10.22174
 Alpha  occ. eigenvalues --  -10.22073 -10.19683 -10.19620 -10.19458 -10.19366
 Alpha  occ. eigenvalues --  -10.18878 -10.18211 -10.17811 -10.15701 -10.15471
 Alpha  occ. eigenvalues --  -10.14880 -10.14601 -10.14380 -10.14304 -10.13938
 Alpha  occ. eigenvalues --  -10.13835 -10.13601 -10.13601 -10.13564 -10.13440
 Alpha  occ. eigenvalues --  -10.13390 -10.13079 -10.12492 -10.12355 -10.11816
 Alpha  occ. eigenvalues --  -10.10012 -10.09385  -1.12975  -1.11743  -1.11725
 Alpha  occ. eigenvalues --   -1.07447  -1.06661  -1.04662  -1.04048  -1.02592
 Alpha  occ. eigenvalues --   -1.02328  -1.02097  -1.00599  -0.88257  -0.87911
 Alpha  occ. eigenvalues --   -0.85056  -0.81257  -0.79774  -0.79524  -0.78876
 Alpha  occ. eigenvalues --   -0.78168  -0.76867  -0.76559  -0.75762  -0.74415
 Alpha  occ. eigenvalues --   -0.73425  -0.70141  -0.69473  -0.69309  -0.68677
 Alpha  occ. eigenvalues --   -0.67576  -0.65308  -0.64815  -0.63574  -0.62700
 Alpha  occ. eigenvalues --   -0.61542  -0.60830  -0.58868  -0.57617  -0.57185
 Alpha  occ. eigenvalues --   -0.55947  -0.55737  -0.54294  -0.53490  -0.52288
 Alpha  occ. eigenvalues --   -0.51885  -0.51128  -0.50449  -0.49961  -0.49681
 Alpha  occ. eigenvalues --   -0.49381  -0.48588  -0.48219  -0.47889  -0.47761
 Alpha  occ. eigenvalues --   -0.47571  -0.47270  -0.47140  -0.46564  -0.46322
 Alpha  occ. eigenvalues --   -0.46051  -0.45723  -0.45320  -0.44854  -0.44679
 Alpha  occ. eigenvalues --   -0.44323  -0.44168  -0.43926  -0.43261  -0.42767
 Alpha  occ. eigenvalues --   -0.42358  -0.42282  -0.41771  -0.41321  -0.40795
 Alpha  occ. eigenvalues --   -0.40572  -0.40380  -0.40147  -0.39529  -0.39381
 Alpha  occ. eigenvalues --   -0.39079  -0.38724  -0.38170  -0.37805  -0.37751
 Alpha  occ. eigenvalues --   -0.37420  -0.37169  -0.36912  -0.36311  -0.36033
 Alpha  occ. eigenvalues --   -0.35705  -0.35539  -0.35406  -0.35049  -0.34815
 Alpha  occ. eigenvalues --   -0.34582  -0.33825  -0.33483  -0.32617  -0.31628
 Alpha  occ. eigenvalues --   -0.30927  -0.30569  -0.29929  -0.29246  -0.28551
 Alpha  occ. eigenvalues --   -0.28232  -0.27793  -0.27450  -0.26830  -0.26664
 Alpha  occ. eigenvalues --   -0.26557  -0.26329  -0.25744  -0.25493  -0.24325
 Alpha  occ. eigenvalues --   -0.23322
 Alpha virt. eigenvalues --   -0.04522  -0.02771  -0.00442  -0.00400   0.00127
 Alpha virt. eigenvalues --    0.02093   0.04981   0.05959   0.06772   0.07833
 Alpha virt. eigenvalues --    0.09211   0.09524   0.10006   0.10744   0.11894
 Alpha virt. eigenvalues --    0.12212   0.12464   0.12919   0.13490   0.14158
 Alpha virt. eigenvalues --    0.14505   0.14891   0.15303   0.15339   0.16010
 Alpha virt. eigenvalues --    0.16173   0.16347   0.16441   0.16945   0.17159
 Alpha virt. eigenvalues --    0.17307   0.17469   0.17598   0.17911   0.18072
 Alpha virt. eigenvalues --    0.18464   0.18816   0.19005   0.19714   0.19746
 Alpha virt. eigenvalues --    0.19970   0.20233   0.20443   0.20852   0.21078
 Alpha virt. eigenvalues --    0.21639   0.21880   0.22014   0.22246   0.23161
 Alpha virt. eigenvalues --    0.23465   0.24061   0.24506   0.24708   0.24927
 Alpha virt. eigenvalues --    0.25251   0.25669   0.25994   0.26485   0.26858
 Alpha virt. eigenvalues --    0.27851   0.28137   0.28407   0.29024   0.29301
 Alpha virt. eigenvalues --    0.29795   0.30375   0.30493   0.31409   0.31855
 Alpha virt. eigenvalues --    0.32007   0.32254   0.32719   0.33282   0.33423
 Alpha virt. eigenvalues --    0.33896   0.34405   0.34757   0.35462   0.35737
 Alpha virt. eigenvalues --    0.37546   0.38744   0.40653   0.40901   0.41570
 Alpha virt. eigenvalues --    0.43712   0.45075   0.45838   0.47890   0.51944
 Alpha virt. eigenvalues --    0.54850   0.58917   0.61675   0.63179   0.63617
 Alpha virt. eigenvalues --    0.64920   0.65407   0.65960   0.67854   0.67964
 Alpha virt. eigenvalues --    0.68336   0.68801   0.69110   0.69611   0.69965
 Alpha virt. eigenvalues --    0.70314   0.70695   0.71045   0.71180   0.71514
 Alpha virt. eigenvalues --    0.71865   0.72609   0.72712   0.72855   0.73078
 Alpha virt. eigenvalues --    0.73588   0.73964   0.74003   0.74827   0.75076
 Alpha virt. eigenvalues --    0.75587   0.75829   0.76188   0.76860   0.76952
 Alpha virt. eigenvalues --    0.77593   0.78041   0.78535   0.78786   0.79713
 Alpha virt. eigenvalues --    0.79895   0.80447   0.81015   0.81511   0.81895
 Alpha virt. eigenvalues --    0.82374   0.82641   0.82977   0.83661   0.84242
 Alpha virt. eigenvalues --    0.84353   0.85010   0.85419   0.85700   0.86441
 Alpha virt. eigenvalues --    0.87388   0.88228   0.89241   0.89743   0.90753
 Alpha virt. eigenvalues --    0.90911   0.91477   0.92211   0.92801   0.93022
 Alpha virt. eigenvalues --    0.95076   0.96516   0.97473   0.97757   0.98266
 Alpha virt. eigenvalues --    0.98658   0.98890   0.99314   1.00705   1.01418
 Alpha virt. eigenvalues --    1.01837   1.02569   1.03610   1.03786   1.04208
 Alpha virt. eigenvalues --    1.04502   1.05242   1.06046   1.06490   1.06892
 Alpha virt. eigenvalues --    1.06930   1.07456   1.07794   1.08313   1.08765
 Alpha virt. eigenvalues --    1.08802   1.09445   1.09844   1.10792   1.11339
 Alpha virt. eigenvalues --    1.11935   1.12141   1.12797   1.13398   1.14166
 Alpha virt. eigenvalues --    1.14646   1.15115   1.16233   1.16989   1.17875
 Alpha virt. eigenvalues --    1.18552   1.19318   1.21014   1.21134   1.21440
 Alpha virt. eigenvalues --    1.22648   1.23239   1.23893   1.25901   1.26275
 Alpha virt. eigenvalues --    1.26509   1.28649   1.29982   1.30731   1.32352
 Alpha virt. eigenvalues --    1.33250   1.34252   1.35377   1.35875   1.36396
 Alpha virt. eigenvalues --    1.37617   1.38876   1.42348   1.43192   1.44987
 Alpha virt. eigenvalues --    1.46085   1.47484   1.50148   1.50490   1.51841
 Alpha virt. eigenvalues --    1.52118   1.53154   1.53684   1.54147   1.54723
 Alpha virt. eigenvalues --    1.56031   1.57136   1.57715   1.59449   1.60458
 Alpha virt. eigenvalues --    1.60571   1.61955   1.63032   1.64036   1.66066
 Alpha virt. eigenvalues --    1.66577   1.68487   1.68967   1.70090   1.70417
 Alpha virt. eigenvalues --    1.71624   1.72281   1.73703   1.74561   1.74841
 Alpha virt. eigenvalues --    1.76572   1.76947   1.78455   1.79624   1.80606
 Alpha virt. eigenvalues --    1.83200   1.83982   1.85078   1.86212   1.86892
 Alpha virt. eigenvalues --    1.89094   1.91332   1.93802   1.94260   1.94953
 Alpha virt. eigenvalues --    1.96505   1.96676   1.97668   1.99025   2.04089
 Alpha virt. eigenvalues --    2.04595   2.07993   2.11232   2.12285   2.13116
 Alpha virt. eigenvalues --    2.16372   2.18624   2.23481   2.28675   2.33593
 Alpha virt. eigenvalues --    2.34202   2.48331   2.50074   2.56794   2.59398
 Alpha virt. eigenvalues --    2.63481   2.90100   3.13377   3.17827   3.22688
 Alpha virt. eigenvalues --    3.25124   3.27772   3.29852   3.33290   3.33980
 Alpha virt. eigenvalues --    3.37665   3.43968   3.50794
          Condensed to atoms (all electrons):
 Mulliken charges:
               1
     1  O   -0.491793
     2  O   -0.567523
     3  O   -0.543788
     4  O   -0.568890
     5  O   -0.565474
     6  O   -0.517837
     7  O   -0.443547
     8  O   -0.576021
     9  O   -0.462052
    10  O   -0.497625
    11  O   -0.485766
    12  C   -0.279503
    13  C    0.119868
    14  C   -0.273174
    15  C    0.102424
    16  C    0.060086
    17  C    0.225990
    18  C    0.089588
    19  C   -0.462103
    20  C   -0.240581
    21  C   -0.120507
    22  C    0.551107
    23  C   -0.421936
    24  C    0.084522
    25  C   -0.529250
    26  C   -0.126310
    27  C   -0.009028
    28  C    0.000101
    29  C   -0.506697
    30  C   -0.548315
    31  C   -0.602324
    32  C    0.673188
    33  C    0.745532
    34  C   -0.672728
    35  C    0.670055
    36  C   -0.098362
    37  C   -0.642804
    38  C   -0.160658
    39  C   -0.176405
    40  C   -0.183361
    41  C   -0.183365
    42  C   -0.174126
    43  H    0.264420
    44  H    0.213393
    45  H    0.274370
    46  H    0.241505
    47  H    0.209111
    48  H    0.235720
    49  H    0.229213
    50  H    0.252758
    51  H    0.190385
    52  H    0.243791
    53  H    0.196438
    54  H    0.240811
    55  H    0.202929
    56  H    0.250670
    57  H    0.224032
    58  H    0.216584
    59  H    0.191619
    60  H    0.174130
    61  H    0.216312
    62  H    0.201403
    63  H    0.204113
    64  H    0.351836
    65  H    0.363820
    66  H    0.211066
    67  H    0.224013
    68  H    0.207011
    69  H    0.357677
    70  H    0.231502
    71  H    0.243118
    72  H    0.238610
    73  H    0.250239
    74  H    0.228024
    75  H    0.226982
    76  H    0.215437
    77  H    0.207339
    78  H    0.194954
    79  H    0.189755
    80  H    0.194301
 Sum of Mulliken charges =  -0.00000
 Mulliken charges with hydrogens summed into heavy atoms:
               1
     1  O   -0.491793
     2  O   -0.567523
     3  O   -0.543788
     4  O   -0.217053
     5  O   -0.201653
     6  O   -0.517837
     7  O   -0.443547
     8  O   -0.218344
     9  O   -0.462052
    10  O   -0.497625
    11  O   -0.485766
    12  C   -0.015083
    13  C    0.119868
    14  C   -0.273174
    15  C    0.315817
    16  C    0.334456
    17  C    0.225990
    18  C    0.331093
    19  C   -0.017272
    20  C   -0.240581
    21  C    0.361464
    22  C    0.551107
    23  C    0.012240
    24  C    0.084522
    25  C    0.110928
    26  C    0.124360
    27  C    0.215004
    28  C    0.000101
    29  C    0.075636
    30  C    0.073512
    31  C    0.039766
    32  C    0.673188
    33  C    0.745532
    34  C    0.040502
    35  C    0.670055
    36  C   -0.098362
    37  C    0.062441
    38  C    0.054778
    39  C    0.030935
    40  C    0.011592
    41  C    0.006390
    42  C    0.020175
 Electronic spatial extent (au):  <R**2>=          18544.9084
 Charge=             -0.0000 electrons
 Dipole moment (field-independent basis, Debye):
    X=             -3.1250    Y=             -4.1344    Z=              4.7570  Tot=              7.0348
 Quadrupole moment (field-independent basis, Debye-Ang):
   XX=           -241.1097   YY=           -241.2952   ZZ=           -250.3368
   XY=             -5.4067   XZ=              2.5761   YZ=              7.5425
 Traceless Quadrupole moment (field-independent basis, Debye-Ang):
   XX=              3.1375   YY=              2.9520   ZZ=             -6.0895
   XY=             -5.4067   XZ=              2.5761   YZ=              7.5425
 Octapole moment (field-independent basis, Debye-Ang**2):
  XXX=           -120.2293  YYY=            -36.0848  ZZZ=             -0.1582  XYY=              1.8534
  XXY=           -126.9067  XXZ=             -7.8235  XZZ=            -27.8686  YZZ=             14.7099
  YYZ=             45.0041  XYZ=             28.4466
 Hexadecapole moment (field-independent basis, Debye-Ang**3):
 XXXX=         -13618.4619 YYYY=          -5360.6408 ZZZZ=          -4150.9222 XXXY=            -90.1195
 XXXZ=              5.1895 YYYX=            -84.8069 YYYZ=             82.5218 ZZZX=            -34.4683
 ZZZY=             46.2765 XXYY=          -3435.3808 XXZZ=          -2925.5916 YYZZ=          -1536.3933
 XXYZ=            110.3380 YYXZ=             -9.7847 ZZXY=            -70.8189
 N-N= 5.968508051989D+03 E-N=-1.665166231880D+04  KE= 2.006052880480D+03
 Calling FoFJK, ICntrl=      2127 FMM=T ISym2X=0 I1Cent= 0 IOpClX= 0 NMat=1 NMatS=1 NMatT=0.
 ***** Axes restored to original set *****
 -------------------------------------------------------------------
 Center     Atomic                   Forces (Hartrees/Bohr)
 Number     Number              X              Y              Z
 -------------------------------------------------------------------
      1        8           0.008395623    0.015262628   -0.019658237
      2        8           0.018517832   -0.008959683    0.015552085
      3        8          -0.004690452    0.007333976    0.025347727
      4        8          -0.001563313    0.011563095   -0.026212286
      5        8           0.028679213   -0.003402742   -0.009000398
      6        8          -0.010106193   -0.027356086    0.000748566
      7        8           0.020235785   -0.009878191   -0.031152363
      8        8          -0.000518985   -0.003365067    0.029933963
      9        8          -0.028186629    0.010410509   -0.028393481
     10        8           0.014086045   -0.000607540   -0.039447424
     11        8           0.011915021    0.039974851    0.004225998
     12        6          -0.002106025    0.000158259   -0.009553679
     13        6          -0.001983452   -0.001184405   -0.005739681
     14        6          -0.004912674   -0.004416582    0.002350945
     15        6           0.008414834   -0.004669700    0.006071540
     16        6           0.006544711    0.003704844    0.005789827
     17        6          -0.000232528   -0.001314778    0.005978060
     18        6          -0.007001884    0.003543993    0.000367555
     19        6          -0.003791088   -0.002391152   -0.001742447
     20        6           0.004512818   -0.000179355   -0.001182803
     21        6          -0.000788949   -0.005391972    0.003324083
     22        6          -0.017460478    0.009536663    0.019998900
     23        6           0.007752808   -0.000123414   -0.001393633
     24        6           0.007369637   -0.007108761   -0.017992063
     25        6           0.000997364    0.000292135    0.005378663
     26        6          -0.009476514    0.001173288    0.003232173
     27        6          -0.000472621    0.001880947   -0.010225315
     28        6          -0.004175331    0.006018927    0.018761284
     29        6          -0.000556055    0.003092881   -0.001676162
     30        6          -0.000835285    0.000779554    0.004781542
     31        6          -0.003828997   -0.004146988   -0.003918630
     32        6           0.003643034   -0.003805380    0.019258072
     33        6          -0.015373722   -0.003046349    0.013456285
     34        6           0.001894367   -0.000095303   -0.001740411
     35        6           0.002952727   -0.017581482   -0.005304787
     36        6           0.009294177    0.002746807    0.000543569
     37        6          -0.002173939   -0.000351324    0.001214731
     38        6          -0.000543272   -0.000109912   -0.004602737
     39        6           0.000535985    0.000399534    0.004535455
     40        6          -0.001419489   -0.000364197   -0.002911946
     41        6          -0.000880397   -0.000084691    0.003402935
     42        6          -0.005163723   -0.000944701    0.001059437
     43        1           0.005632887   -0.002917011    0.010415745
     44        1          -0.003810238    0.006437313    0.008127784
     45        1           0.002256864   -0.003334913   -0.011955412
     46        1           0.009460243   -0.003175022    0.002001697
     47        1           0.001254050   -0.004030274    0.008539412
     48        1           0.004243860    0.007197600   -0.000251903
     49        1          -0.000881968   -0.007704399   -0.008582151
     50        1          -0.010580090    0.003430892    0.003533802
     51        1          -0.002589434   -0.008078301    0.002346955
     52        1          -0.006969542    0.006251103   -0.000494554
     53        1          -0.005422570    0.007749046   -0.001167483
     54        1           0.008018632    0.000084026   -0.004437904
     55        1          -0.004742634   -0.007535401   -0.001018295
     56        1           0.004404830    0.009280917    0.005716186
     57        1           0.000497855   -0.006183123    0.008109134
     58        1           0.007485450   -0.002687357   -0.000764673
     59        1          -0.001763213    0.002051823    0.008291531
     60        1          -0.005609363   -0.004882157   -0.003495443
     61        1           0.008817811   -0.001256302    0.000669208
     62        1          -0.005503398   -0.006251144   -0.001719564
     63        1          -0.001500379    0.007575062   -0.005828449
     64        1          -0.004361579   -0.016515544    0.017745789
     65        1          -0.025500080    0.007217418    0.001241854
     66        1          -0.001734285    0.008383202   -0.001520979
     67        1          -0.002085082   -0.000942333    0.008073852
     68        1           0.008117543   -0.001374373   -0.002276168
     69        1          -0.003680618    0.014257996   -0.022241650
     70        1          -0.007780579   -0.000450359    0.000773567
     71        1           0.006300856   -0.007686424    0.004062028
     72        1           0.002537107    0.006293277    0.004248837
     73        1          -0.002726958   -0.002496814   -0.007136778
     74        1          -0.000010305   -0.007212985    0.004286162
     75        1           0.007361264    0.002767524   -0.000673841
     76        1           0.004112868    0.000657229   -0.008128326
     77        1           0.006510701    0.001207728    0.007005820
     78        1          -0.005636514   -0.001086080   -0.006749970
     79        1          -0.003108643   -0.000504612    0.008266413
     80        1          -0.008515329   -0.001530368    0.001522855
 -------------------------------------------------------------------
 Cartesian Forces:  Max     0.039974851 RMS     0.009446217

 GradGradGradGradGradGradGradGradGradGradGradGradGradGradGradGradGradGrad
 Berny optimization.
 FormGI is forming the generalized inverse of G from B-inverse, IUseBI=4.
 Internal  Forces:  Max     0.041852743 RMS     0.006092196
 Search for a local minimum.
 Step number   1 out of a maximum of  480
 All quantities printed in internal units (Hartrees-Bohrs-Radians)
 Mixed Optimization -- RFO/linear search
 Second derivative matrix not updated -- first step.
 ITU=  0
     Eigenvalues ---    0.00230   0.00230   0.00230   0.00250   0.00308
     Eigenvalues ---    0.00344   0.00424   0.00493   0.00501   0.00701
     Eigenvalues ---    0.00711   0.00828   0.00831   0.00852   0.00968
     Eigenvalues ---    0.01034   0.01035   0.01036   0.01039   0.01116
     Eigenvalues ---    0.01117   0.01119   0.01262   0.01310   0.01379
     Eigenvalues ---    0.01461   0.01545   0.01936   0.02060   0.02113
     Eigenvalues ---    0.02160   0.02176   0.02232   0.02284   0.02287
     Eigenvalues ---    0.02302   0.02306   0.02311   0.02317   0.02322
     Eigenvalues ---    0.02326   0.02452   0.02884   0.03089   0.03412
     Eigenvalues ---    0.03655   0.03717   0.04081   0.04125   0.04174
     Eigenvalues ---    0.04293   0.04399   0.04643   0.04741   0.04847
     Eigenvalues ---    0.04868   0.05023   0.05079   0.05194   0.05263
     Eigenvalues ---    0.05331   0.05354   0.05381   0.05597   0.05690
     Eigenvalues ---    0.05740   0.05747   0.05750   0.05757   0.05988
     Eigenvalues ---    0.06384   0.06797   0.06860   0.07013   0.07172
     Eigenvalues ---    0.07256   0.07304   0.07449   0.07534   0.07683
     Eigenvalues ---    0.07774   0.07915   0.07979   0.08019   0.08137
     Eigenvalues ---    0.08265   0.08425   0.08598   0.08839   0.08886
     Eigenvalues ---    0.09099   0.09377   0.09773   0.10313   0.10522
     Eigenvalues ---    0.11230   0.12423   0.12891   0.14338   0.15357
     Eigenvalues ---    0.15938   0.16000   0.16000   0.16000   0.16000
     Eigenvalues ---    0.16000   0.16000   0.16000   0.16000   0.16000
     Eigenvalues ---    0.16000   0.16000   0.16000   0.16000   0.16000
     Eigenvalues ---    0.16000   0.16000   0.16000   0.16000   0.16000
     Eigenvalues ---    0.16000   0.16000   0.16000   0.16000   0.16000
     Eigenvalues ---    0.16000   0.16000   0.16124   0.17213   0.17502
     Eigenvalues ---    0.18182   0.18348   0.19506   0.21162   0.21772
     Eigenvalues ---    0.22000   0.22000   0.22417   0.23320   0.23487
     Eigenvalues ---    0.24297   0.24673   0.24737   0.24879   0.24990
     Eigenvalues ---    0.24991   0.24997   0.24999   0.25000   0.25000
     Eigenvalues ---    0.25000   0.25000   0.25000   0.25000   0.25250
     Eigenvalues ---    0.26245   0.26580   0.26816   0.27097   0.27446
     Eigenvalues ---    0.27485   0.27504   0.28055   0.28077   0.28109
     Eigenvalues ---    0.28247   0.28637   0.29483   0.30081   0.30362
     Eigenvalues ---    0.31078   0.31527   0.31944   0.32253   0.32900
     Eigenvalues ---    0.35310   0.35345   0.35464   0.35509   0.35553
     Eigenvalues ---    0.35570   0.35581   0.35643   0.35741   0.35800
[...]
     64          1           0       -1.921667   -2.389604    1.233443
     65          1           0        0.803970    2.891494   -3.045510
     66          1           0        2.621818    2.122499    2.141688
     67          1           0        2.972493    1.383532    3.689441
     68          1           0        3.998719    1.004238    2.288724
     69          1           0        0.068474    1.737373    2.568589
     70          1           0       -3.400014    2.330938    3.478422
     71          1           0       -1.616535    2.037643    3.589128
     72          1           0       -2.248130    3.654310    3.231280
     73          1           0        5.809616   -2.617648   -1.860043
     74          1           0        6.450610   -2.598899   -0.208726
     75          1           0        7.200751   -1.564093   -1.475403
     76          1           0       -4.223469   -2.849541   -2.359720
     77          1           0       -4.191531    0.375520    0.460916
     78          1           0       -6.714373   -2.986323   -2.184830
     79          1           0       -6.658059    0.236604    0.661714
     80          1           0       -7.919842   -1.442776   -0.657193
 ---------------------------------------------------------------------
 Rotational constants (GHZ):           0.1342678           0.0686731           0.0665215

 **********************************************************************

            Population analysis using the SCF Density.

 **********************************************************************

 Orbital symmetries:
       Occupied  (A) (A) (A) (A) (A) (A) (A) (A) (A) (A) (A) (A)
                 (A) (A) (A) (A) (A) (A) (A) (A) (A) (A) (A) (A)
                 (A) (A) (A) (A) (A) (A) (A) (A) (A) (A) (A) (A)
                 (A) (A) (A) (A) (A) (A) (A) (A) (A) (A) (A) (A)
                 (A) (A) (A) (A) (A) (A) (A) (A) (A) (A) (A) (A)
                 (A) (A) (A) (A) (A) (A) (A) (A) (A) (A) (A) (A)
                 (A) (A) (A) (A) (A) (A) (A) (A) (A) (A) (A) (A)
                 (A) (A) (A) (A) (A) (A) (A) (A) (A) (A) (A) (A)
                 (A) (A) (A) (A) (A) (A) (A) (A) (A) (A) (A) (A)
                 (A) (A) (A) (A) (A) (A) (A) (A) (A) (A) (A) (A)
                 (A) (A) (A) (A) (A) (A) (A) (A) (A) (A) (A) (A)
                 (A) (A) (A) (A) (A) (A) (A) (A) (A) (A) (A) (A)
                 (A) (A) (A) (A) (A) (A) (A) (A) (A) (A) (A) (A)
       Virtual   (A) (A) (A) (A) (A) (A) (A) (A) (A) (A) (A) (A)
                 (A) (A) (A) (A) (A) (A) (A) (A) (A) (A) (A) (A)
                 (A) (A) (A) (A) (A) (A) (A) (A) (A) (A) (A) (A)
                 (A) (A) (A) (A) (A) (A) (A) (A) (A) (A) (A) (A)
                 (A) (A) (A) (A) (A) (A) (A) (A) (A) (A) (A) (A)
                 (A) (A) (A) (A) (A) (A) (A) (A) (A) (A) (A) (A)
                 (A) (A) (A) (A) (A) (A) (A) (A) (A) (A) (A) (A)
                 (A) (A) (A) (A) (A) (A) (A) (A) (A) (A) (A) (A)
                 (A) (A) (A) (A) (A) (A) (A) (A) (A) (A) (A) (A)
                 (A) (A) (A) (A) (A) (A) (A) (A) (A) (A) (A) (A)
                 (A) (A) (A) (A) (A) (A) (A) (A) (A) (A) (A) (A)
                 (A) (A) (A) (A) (A) (A) (A) (A) (A) (A) (A) (A)
                 (A) (A) (A) (A) (A) (A) (A) (A) (A) (A) (A) (A)
                 (A) (A) (A) (A) (A) (A) (A) (A) (A) (A) (A) (A)
                 (A) (A) (A) (A) (A) (A) (A) (A) (A) (A) (A) (A)
                 (A) (A) (A) (A) (A) (A) (A) (A) (A) (A) (A) (A)
                 (A) (A) (A) (A) (A) (A) (A) (A) (A) (A) (A) (A)
                 (A) (A) (A) (A) (A) (A) (A) (A) (A) (A) (A) (A)
                 (A) (A) (A) (A) (A) (A) (A) (A) (A) (A) (A) (A)
                 (A) (A) (A) (A) (A) (A) (A) (A) (A) (A) (A) (A)
                 (A) (A) (A) (A) (A) (A) (A) (A) (A) (A) (A) (A)
                 (A) (A) (A) (A) (A) (A) (A) (A) (A) (A) (A) (A)
                 (A) (A) (A) (A) (A) (A) (A) (A) (A) (A) (A) (A)
                 (A) (A) (A) (A) (A) (A) (A) (A) (A) (A) (A) (A)
                 (A) (A) (A) (A) (A) (A) (A) (A) (A) (A)
 The electronic state is 1-A.
 Alpha  occ. eigenvalues --  -19.12157 -19.09998 -19.07835 -19.06948 -19.06780
 Alpha  occ. eigenvalues --  -19.05244 -19.04534 -19.03711 -19.03448 -19.03317
 Alpha  occ. eigenvalues --  -19.00910 -10.29734 -10.27557 -10.25920 -10.23278
 Alpha  occ. eigenvalues --  -10.22614 -10.20607 -10.20037 -10.19606 -10.19527
 Alpha  occ. eigenvalues --  -10.19365 -10.19092 -10.18497 -10.16005 -10.15929
 Alpha  occ. eigenvalues --  -10.15870 -10.14985 -10.14852 -10.14795 -10.14771
 Alpha  occ. eigenvalues --  -10.14766 -10.14677 -10.14534 -10.14508 -10.14389
 Alpha  occ. eigenvalues --  -10.14240 -10.13105 -10.12981 -10.12787 -10.10741
 Alpha  occ. eigenvalues --  -10.09865 -10.09661  -1.12686  -1.11102  -1.10185
 Alpha  occ. eigenvalues --   -1.06224  -1.06072  -1.04485  -1.03747  -1.01628
 Alpha  occ. eigenvalues --   -1.01424  -1.01092  -0.99539  -0.88147  -0.87563
 Alpha  occ. eigenvalues --   -0.85099  -0.80690  -0.79931  -0.79286  -0.78585
 Alpha  occ. eigenvalues --   -0.78125  -0.76703  -0.76198  -0.75895  -0.74257
 Alpha  occ. eigenvalues --   -0.73003  -0.70057  -0.68856  -0.68832  -0.67721
 Alpha  occ. eigenvalues --   -0.67222  -0.65147  -0.64465  -0.63411  -0.62723
 Alpha  occ. eigenvalues --   -0.61064  -0.60456  -0.57871  -0.57614  -0.56529
 Alpha  occ. eigenvalues --   -0.55552  -0.54785  -0.54057  -0.53016  -0.52649
 Alpha  occ. eigenvalues --   -0.51750  -0.51205  -0.51086  -0.50212  -0.49905
 Alpha  occ. eigenvalues --   -0.48708  -0.48413  -0.47902  -0.47847  -0.47729
 Alpha  occ. eigenvalues --   -0.47615  -0.46903  -0.46708  -0.46624  -0.46198
 Alpha  occ. eigenvalues --   -0.45632  -0.45480  -0.45153  -0.44894  -0.44695
 Alpha  occ. eigenvalues --   -0.44312  -0.44202  -0.43903  -0.43257  -0.42538
 Alpha  occ. eigenvalues --   -0.42353  -0.42222  -0.41619  -0.41404  -0.41046
 Alpha  occ. eigenvalues --   -0.40888  -0.40511  -0.40167  -0.39827  -0.38802
 Alpha  occ. eigenvalues --   -0.38523  -0.38082  -0.38018  -0.37710  -0.37570
 Alpha  occ. eigenvalues --   -0.37379  -0.37269  -0.36628  -0.36431  -0.36234
 Alpha  occ. eigenvalues --   -0.35886  -0.35575  -0.35220  -0.35158  -0.34773
 Alpha  occ. eigenvalues --   -0.34558  -0.33405  -0.33308  -0.32597  -0.31745
 Alpha  occ. eigenvalues --   -0.31550  -0.30912  -0.30591  -0.29889  -0.29358
 Alpha  occ. eigenvalues --   -0.29276  -0.28773  -0.27270  -0.27247  -0.27136
 Alpha  occ. eigenvalues --   -0.26967  -0.26361  -0.26012  -0.25574  -0.24168
 Alpha  occ. eigenvalues --   -0.23432
 Alpha virt. eigenvalues --   -0.05925  -0.03572  -0.02721  -0.01204  -0.01099
 Alpha virt. eigenvalues --    0.01053   0.03117   0.04084   0.06299   0.07507
 Alpha virt. eigenvalues --    0.07911   0.09743   0.10300   0.10367   0.11167
 Alpha virt. eigenvalues --    0.11311   0.12120   0.12405   0.12892   0.13132
 Alpha virt. eigenvalues --    0.14035   0.14408   0.14678   0.15136   0.15343
 Alpha virt. eigenvalues --    0.15690   0.15848   0.15891   0.16166   0.16540
 Alpha virt. eigenvalues --    0.16707   0.16784   0.16845   0.17588   0.17644
 Alpha virt. eigenvalues --    0.17873   0.18194   0.18268   0.18452   0.18764
 Alpha virt. eigenvalues --    0.19414   0.19596   0.19673   0.20079   0.20112
 Alpha virt. eigenvalues --    0.20871   0.21451   0.21595   0.21840   0.22091
 Alpha virt. eigenvalues --    0.22504   0.22901   0.23007   0.23487   0.24051
 Alpha virt. eigenvalues --    0.24489   0.24707   0.24876   0.25380   0.25751
 Alpha virt. eigenvalues --    0.26760   0.27242   0.27586   0.27768   0.28438
 Alpha virt. eigenvalues --    0.28846   0.29260   0.29734   0.30142   0.30515
 Alpha virt. eigenvalues --    0.30810   0.30955   0.31594   0.31754   0.32350
 Alpha virt. eigenvalues --    0.32447   0.33028   0.33598   0.33978   0.34614
 Alpha virt. eigenvalues --    0.36541   0.38354   0.39047   0.39505   0.40662
 Alpha virt. eigenvalues --    0.42535   0.44099   0.45008   0.46049   0.50549
 Alpha virt. eigenvalues --    0.53012   0.56828   0.61154   0.63712   0.63951
 Alpha virt. eigenvalues --    0.64684   0.65021   0.66461   0.67498   0.67621
 Alpha virt. eigenvalues --    0.68310   0.68620   0.68883   0.69133   0.69310
 Alpha virt. eigenvalues --    0.69903   0.70340   0.71084   0.71234   0.71321
 Alpha virt. eigenvalues --    0.71719   0.71915   0.72131   0.72467   0.72804
 Alpha virt. eigenvalues --    0.72984   0.73183   0.73440   0.73759   0.74032
 Alpha virt. eigenvalues --    0.74620   0.75570   0.75779   0.76402   0.76671
 Alpha virt. eigenvalues --    0.76967   0.77229   0.77929   0.78613   0.78832
 Alpha virt. eigenvalues --    0.79055   0.79580   0.80090   0.80316   0.80970
 Alpha virt. eigenvalues --    0.81156   0.81964   0.82188   0.83271   0.83868
 Alpha virt. eigenvalues --    0.84137   0.84962   0.85220   0.85820   0.86558
 Alpha virt. eigenvalues --    0.86885   0.87537   0.87768   0.88335   0.89564
 Alpha virt. eigenvalues --    0.90509   0.91580   0.91631   0.92496   0.93051
 Alpha virt. eigenvalues --    0.93889   0.95037   0.96398   0.97299   0.97645
 Alpha virt. eigenvalues --    0.97830   0.98089   0.99564   0.99899   1.00538
 Alpha virt. eigenvalues --    1.00881   1.02082   1.02669   1.02894   1.03613
 Alpha virt. eigenvalues --    1.03801   1.04162   1.05028   1.05870   1.05922
 Alpha virt. eigenvalues --    1.06153   1.06791   1.07179   1.07872   1.08440
 Alpha virt. eigenvalues --    1.08807   1.09175   1.09829   1.10336   1.10839
 Alpha virt. eigenvalues --    1.11307   1.11459   1.12016   1.12293   1.13565
 Alpha virt. eigenvalues --    1.13898   1.14794   1.15199   1.16057   1.16728
 Alpha virt. eigenvalues --    1.18175   1.18583   1.19160   1.20238   1.20427
 Alpha virt. eigenvalues --    1.20988   1.22171   1.22711   1.23693   1.25029
 Alpha virt. eigenvalues --    1.26297   1.27565   1.28653   1.29628   1.30704
 Alpha virt. eigenvalues --    1.33293   1.34208   1.34881   1.36160   1.38395
 Alpha virt. eigenvalues --    1.38720   1.39736   1.42317   1.43101   1.43956
 Alpha virt. eigenvalues --    1.45817   1.47631   1.48651   1.50327   1.51768
 Alpha virt. eigenvalues --    1.51951   1.52691   1.53569   1.53724   1.55724
 Alpha virt. eigenvalues --    1.56019   1.57829   1.58828   1.60953   1.61466
 Alpha virt. eigenvalues --    1.62219   1.63506   1.63989   1.65201   1.66578
 Alpha virt. eigenvalues --    1.67728   1.68438   1.68908   1.69641   1.70573
 Alpha virt. eigenvalues --    1.71729   1.72127   1.72817   1.74431   1.75540
 Alpha virt. eigenvalues --    1.75731   1.76409   1.77983   1.78581   1.80293
 Alpha virt. eigenvalues --    1.80715   1.82010   1.83059   1.84615   1.85584
 Alpha virt. eigenvalues --    1.88599   1.89577   1.90886   1.92489   1.92922
 Alpha virt. eigenvalues --    1.94762   1.95342   1.96134   1.98935   2.02385
 Alpha virt. eigenvalues --    2.03593   2.06348   2.08054   2.09269   2.10054
 Alpha virt. eigenvalues --    2.13174   2.17985   2.20049   2.26327   2.31306
 Alpha virt. eigenvalues --    2.31741   2.46164   2.47520   2.54947   2.57381
 Alpha virt. eigenvalues --    2.61975   2.88106   3.09985   3.15968   3.18750
 Alpha virt. eigenvalues --    3.22258   3.23547   3.25718   3.28113   3.30363
 Alpha virt. eigenvalues --    3.32766   3.38104   3.43369
          Condensed to atoms (all electrons):
 Mulliken charges:
               1
     1  O   -0.465193
     2  O   -0.538012
     3  O   -0.522527
     4  O   -0.546891
     5  O   -0.555883
     6  O   -0.492427
     7  O   -0.440521
     8  O   -0.557637
     9  O   -0.462064
    10  O   -0.473920
    11  O   -0.487162
    12  C   -0.271856
    13  C    0.099877
    14  C   -0.264748
    15  C    0.086191
    16  C    0.015042
    17  C    0.210736
    18  C    0.070295
    19  C   -0.466893
    20  C   -0.219811
    21  C   -0.125550
    22  C    0.537907
    23  C   -0.418099
    24  C    0.072889
    25  C   -0.536229
    26  C   -0.122505
    27  C   -0.025040
    28  C   -0.002088
    29  C   -0.497672
    30  C   -0.548716
    31  C   -0.600651
    32  C    0.667168
    33  C    0.675118
    34  C   -0.674221
    35  C    0.656417
    36  C   -0.115468
    37  C   -0.637108
    38  C   -0.157067
    39  C   -0.204464
    40  C   -0.184642
    41  C   -0.185603
    42  C   -0.174272
    43  H    0.273328
    44  H    0.216328
    45  H    0.285656
    46  H    0.242804
    47  H    0.217091
    48  H    0.236903
    49  H    0.229728
    50  H    0.253980
    51  H    0.220422
    52  H    0.213548
    53  H    0.183800
    54  H    0.235706
    55  H    0.206648
    56  H    0.250163
    57  H    0.225940
    58  H    0.198029
    59  H    0.183064
    60  H    0.210272
    61  H    0.211606
    62  H    0.212843
    63  H    0.200801
    64  H    0.343788
    65  H    0.358509
    66  H    0.211066
    67  H    0.224937
    68  H    0.204429
    69  H    0.353369
    70  H    0.232681
    71  H    0.253734
    72  H    0.241659
    73  H    0.251645
    74  H    0.229026
    75  H    0.225336
    76  H    0.219572
    77  H    0.230392
    78  H    0.198385
    79  H    0.198024
    80  H    0.198090
 Sum of Mulliken charges =  -0.00000
 Mulliken charges with hydrogens summed into heavy atoms:
               1
     1  O   -0.465193
     2  O   -0.538012
     3  O   -0.522527
     4  O   -0.203103
     5  O   -0.197374
     6  O   -0.492427
     7  O   -0.440521
     8  O   -0.204268
     9  O   -0.462064
    10  O   -0.473920
    11  O   -0.487162
    12  C    0.001472
    13  C    0.099877
    14  C   -0.264748
    15  C    0.302519
    16  C    0.300698
    17  C    0.210736
    18  C    0.313099
    19  C   -0.012899
    20  C   -0.219811
    21  C    0.358158
    22  C    0.537907
    23  C    0.015871
    24  C    0.072889
    25  C    0.089924
    26  C    0.127659
    27  C    0.200900
    28  C   -0.002088
    29  C    0.093692
    30  C    0.076533
    31  C    0.039781
    32  C    0.667168
    33  C    0.675118
    34  C    0.053853
    35  C    0.656417
    36  C   -0.115468
    37  C    0.068898
    38  C    0.062505
    39  C    0.025928
    40  C    0.013744
    41  C    0.012421
    42  C    0.023818
 Electronic spatial extent (au):  <R**2>=          18739.4413
 Charge=             -0.0000 electrons
 Dipole moment (field-independent basis, Debye):
    X=             -3.6792    Y=              0.5037    Z=              5.1525  Tot=              6.3513
 Quadrupole moment (field-independent basis, Debye-Ang):
   XX=           -227.1238   YY=           -245.9158   ZZ=           -261.1045
   XY=             -4.0729   XZ=              7.2657   YZ=             10.1864
 Traceless Quadrupole moment (field-independent basis, Debye-Ang):
   XX=             17.5909   YY=             -1.2011   ZZ=            -16.3898
   XY=             -4.0729   XZ=              7.2657   YZ=             10.1864
 Octapole moment (field-independent basis, Debye-Ang**2):
  XXX=           -104.9995  YYY=             48.7645  ZZZ=             34.3321  XYY=              8.1422
  XXY=           -105.0013  XXZ=             19.5859  XZZ=            -41.7521  YZZ=            -26.0273
  YYZ=             21.7168  XYZ=             -6.9781
 Hexadecapole moment (field-independent basis, Debye-Ang**3):
 XXXX=         -12809.8544 YYYY=          -5227.5381 ZZZZ=          -4908.1289 XXXY=            -79.9669
 XXXZ=             42.1672 YYYX=            -56.6648 YYYZ=            169.1842 ZZZX=            -21.9176
 ZZZY=             29.8805 XXYY=          -3160.3120 XXZZ=          -3217.8970 YYZZ=          -1722.4505
 XXYZ=            292.0067 YYXZ=              8.3914 ZZXY=            -95.9760
 N-N= 5.919554665890D+03 E-N=-1.655164879282D+04  KE= 2.003856510716D+03
 Unable to Open any file for archive entry.
 1\1\GINC-AMR-200\FOpt\RB3LYP\3-21G*\C31H38O11\LIZHEN6\26-Mar-2023\0\\#
  B3LYP/3-21G* Geom=Chk Guess=CopyChk Opt\\CLR\\0,1\O,-0.1902408336,3.6
 334455432,-0.9892574341\O,-1.0130461953,1.6457310302,1.6390614621\O,-1
 .8640068439,-0.3439430839,-0.35473766\O,-1.1227704945,-2.8659527474,0.
 246778194\O,2.2005004034,3.1982137887,-2.1072855284\O,4.2474788844,-1.
 6239144519,-0.1298829589\O,3.1142825105,-0.5615358133,-2.1982938218\O,
 0.2754091872,0.3095674208,3.7169912124\O,-3.2256226998,2.2249892675,1.
 2582457104\O,-1.8215814375,-1.1084627905,-2.5421665791\O,5.5310895195,
 0.2272812475,-0.5904598854\C,0.4218533909,0.6847584591,-0.0493179234\C
 ,-0.4336909453,1.9126715155,0.2914429208\C,1.4817927358,0.9176556379,-
 1.1909975481\C,0.4157247286,3.209615901,0.3394645835\C,-0.3899483711,-
 0.6271728327,-0.2857626824\C,-0.2147645934,-1.8131609476,0.7163706349\
 C,2.3304015227,2.2887998611,-0.9912114661\C,1.9201986228,3.0294623887,
 0.294510412\C,1.2134014146,-2.4228187706,0.6225561554\C,-1.2691950598,
 2.5673845274,-0.8392279595\C,2.5754223834,-0.1810308901,-1.1587322935\
 C,-0.5511214677,-1.4910695446,2.1881349945\C,2.1613341422,-1.327764492
 6,1.1318753823\C,0.8973551388,0.932824925,-2.6232022238\C,3.1631028378
 ,-0.6848225501,0.2082716867\C,0.6218339018,-0.981090676,3.0900165327\C
 ,1.9464749788,-0.7885751888,2.3487876857\C,1.3117926872,-3.6632740179,
 1.5594760957\C,1.5275409267,-2.9588270886,-0.7965684348\C,2.8836431874
 ,0.1905658407,3.0383066166\C,-2.333141944,1.9062404947,2.0326343255\C,
 -2.4694064619,-0.7369573057,-1.5656401636\C,-2.4540372693,1.7506273834
 ,3.5323227256\C,5.385996899,-0.9888025358,-0.6358930446\C,-3.944715081
 5,-0.6758099492,-1.5109150352\C,6.3221059083,-2.0213596335,-1.20503096
 21\C,-4.6353193092,-1.2925646956,-2.5646471265\C,-4.6458420023,-0.0299
 402357,-0.4865481\C,-6.0262518697,-1.2909690513,-2.5785328638\C,-6.040
 5199177,-0.0210734599,-0.5137613755\C,-6.7308802682,-0.6577343926,-1.5
 48805247\H,0.9917384824,0.5266973044,0.8593409352\H,0.0805064498,3.874
 3414929,1.1401617938\H,-0.1503345529,-1.0379713421,-1.2604352926\H,3.3
 923306931,2.0274977994,-0.9516782055\H,2.2294166298,2.4896542065,1.196
 8841592\H,2.4258542294,4.0000271804,0.2882926439\H,-1.3790619163,1.979
 8473447,-1.7447341668\H,-2.2053347106,2.9961880669,-0.5018951895\H,-0.
 9419600407,-2.4221220293,2.6060938941\H,-1.3518249719,-0.7512690674,2.
 2117518335\H,0.378154764,1.8674521887,-2.8175738016\H,1.7234180122,0.8
 561545264,-3.3285434997\H,0.2114422429,0.1014691196,-2.7951230505\H,3.
 612187341,0.1922832446,0.6808461749\H,0.7533336333,-1.6582725071,3.939
 4547626\H,2.2838037643,-4.1429486285,1.4076918507\H,1.2295944242,-3.39
 52067586,2.614925767\H,0.5124387074,-4.3614173746,1.2990576127\H,2.579
 5011911,-3.2488400263,-0.8416905584\H,0.8830806863,-3.8206763279,-0.98
 09717256\H,1.3535243739,-2.2399120698,-1.5952402223\H,-2.0441611966,-2
 .5081836741,0.3639726166\H,1.2706381859,3.5726378513,-2.0159943088\H,2
 .6162893891,1.2342244422,2.834159227\H,2.8029526483,0.0625537936,4.121
 376405\H,3.9222024633,0.0284395909,2.7411129372\H,0.0211485668,0.92008
 13891,2.9633405626\H,-3.4787589694,1.4669979677,3.7770094597\H,-1.7262
 750971,1.0323106319,3.9145683005\H,-2.2494031903,2.7233870938,3.999267
 6547\H,5.8965682362,-2.3767463951,-2.1503724088\H,6.3993661699,-2.8734
 794306,-0.5260188221\H,7.2992904273,-1.5748123908,-1.3871851232\H,-4.0
 608873646,-1.7656327769,-3.3511429771\H,-4.1098955047,0.511799959,0.27
 77581611\H,-6.5613975479,-1.7748274201,-3.3866878539\H,-6.5883768193,0
 .4915051168,0.2679324926\H,-7.8147426758,-0.6514401781,-1.5600810514\\
 Version=ES64L-G16RevC.01\State=1-A\HF=-2020.4689638\RMSD=6.573e-09\RMS
 F=3.797e-06\Dipole=-1.598817,-0.2885584,1.8985293\Quadrupole=11.646083
 2,-5.2599427,-6.3861405,-6.2950122,6.1839164,8.7154764\PG=C01 [X(C31H3
 8O11)]\\@
 The archive entry for this job was punched.


 Cherishing children is the mark of a civilized society.
 -- Joan Ganz Cooney
 Job cpu time:       0 days 10 hours 37 minutes 40.0 seconds.
 Elapsed time:       0 days  1 hours 20 minutes 28.1 seconds.
 File lengths (MBytes):  RWF=    368 Int=      0 D2E=      0 Chk=     48 Scr=     32
 Normal termination of Gaussian 16 at Sun Mar 26 17:09:25 2023.
