 Entering Gaussian System, Link 0=g16
 Initial command:
 /opt/software/Gaussian/g16-AVX2-C.01/g16/l1.exe "/mnt/gs21/scratch/lizhen6/Gau-30462.inp" -scrdir="/mnt/gs21/scratch/lizhen6/"
 Entering Link 1 = /opt/software/Gaussian/g16-AVX2-C.01/g16/l1.exe PID=     30463.
  
 Copyright (c) 1988-2019, Gaussian, Inc.  All Rights Reserved.
  
 This is part of the Gaussian(R) 16 program.  It is based on
 the Gaussian(R) 09 system (copyright 2009, Gaussian, Inc.),
 the Gaussian(R) 03 system (copyright 2003, Gaussian, Inc.),
 the Gaussian(R) 98 system (copyright 1998, Gaussian, Inc.),
 the Gaussian(R) 94 system (copyright 1995, Gaussian, Inc.),
 the Gaussian 92(TM) system (copyright 1992, Gaussian, Inc.),
 the Gaussian 90(TM) system (copyright 1990, Gaussian, Inc.),
 the Gaussian 88(TM) system (copyright 1988, Gaussian, Inc.),
 the Gaussian 86(TM) system (copyright 1986, Carnegie Mellon
 University), and the Gaussian 82(TM) system (copyright 1983,
 Carnegie Mellon University). Gaussian is a federally registered
 trademark of Gaussian, Inc.
  
 This software contains proprietary and confidential information,
 including trade secrets, belonging to Gaussian, Inc.
  
 This software is provided under written license and may be
 used, copied, transmitted, or stored only in accord with that
 written license.
  
 The following legend is applicable only to US Government
 contracts under FAR:
  
                    RESTRICTED RIGHTS LEGEND
  
 Use, reproduction and disclosure by the US Government is
 subject to restrictions as set forth in subparagraphs (a)
 and (c) of the Commercial Computer Software - Restricted
 Rights clause in FAR 52.227-19.
  
 Gaussian, Inc.
 340 Quinnipiac St., Bldg. 40, Wallingford CT 06492
  
  
 ---------------------------------------------------------------
 Warning -- This program may not be used in any manner that
 competes with the business of Gaussian, Inc. or will provide
 assistance to any competitor of Gaussian, Inc.  The licensee
 of this program is prohibited from giving any competitor of
 Gaussian, Inc. access to this program.  By using this program,
 the user acknowledges that Gaussian, Inc. is engaged in the
 business of creating and licensing software in the field of
 computational chemistry and represents and warrants to the
 licensee that it is not a competitor of Gaussian, Inc. and that
 it will not use this program in any manner prohibited above.
 ---------------------------------------------------------------
  

 Cite this work as:
 Gaussian 16, Revision C.01,
 M. J. Frisch, G. W. Trucks, H. B. Schlegel, G. E. Scuseria, 
 M. A. Robb, J. R. Cheeseman, G. Scalmani, V. Barone, 
 G. A. Petersson, H. Nakatsuji, X. Li, M. Caricato, A. V. Marenich, 
 J. Bloino, B. G. Janesko, R. Gomperts, B. Mennucci, H. P. Hratchian, 
 J. V. Ortiz, A. F. Izmaylov, J. L. Sonnenberg, D. Williams-Young, 
 F. Ding, F. Lipparini, F. Egidi, J. Goings, B. Peng, A. Petrone, 
 T. Henderson, D. Ranasinghe, V. G. Zakrzewski, J. Gao, N. Rega, 
 G. Zheng, W. Liang, M. Hada, M. Ehara, K. Toyota, R. Fukuda, 
 J. Hasegawa, M. Ishida, T. Nakajima, Y. Honda, O. Kitao, H. Nakai, 
 T. Vreven, K. Throssell, J. A. Montgomery, Jr., J. E. Peralta, 
 F. Ogliaro, M. J. Bearpark, J. J. Heyd, E. N. Brothers, K. N. Kudin, 
 V. N. Staroverov, T. A. Keith, R. Kobayashi, J. Normand, 
 K. Raghavachari, A. P. Rendell, J. C. Burant, S. S. Iyengar, 
 J. Tomasi, M. Cossi, J. M. Millam, M. Klene, C. Adamo, R. Cammi, 
 J. W. Ochterski, R. L. Martin, K. Morokuma, O. Farkas, 
 J. B. Foresman, and D. J. Fox, Gaussian, Inc., Wallingford CT, 2019.
 
 ******************************************
 Gaussian 16:  ES64L-G16RevC.01  3-Jul-2019
                 5-Apr-2023 
 ******************************************
 %Chk=6WZ3_small_opt4.chk
 %Mem=32GB
 %NProcShared=8
 Will use up to    8 processors via shared memory.
 --------------------------------------
 # B3LYP/6-31G* Geom=Chk Guess=Read Opt
 --------------------------------------
 1/18=20,19=15,26=3,29=2,38=1/1,3;
 2/9=110,12=2,40=1/2;
 3/5=1,6=6,7=1,11=2,14=-4,25=1,30=1,71=1,74=-5,116=-2/1,2,3;
 4/5=1/1;
 5/5=2,38=6/2;
 6/7=2,8=2,9=2,10=2,28=1/1;
 7//1,2,3,16;
 1/18=20,19=15,26=3/3(2);
 2/9=110/2;
 99//99;
 2/9=110/2;
 3/5=1,6=6,7=1,11=2,14=-2,25=1,30=1,71=1,74=-5/1,2,3;
 4/5=5,16=3,69=1/1;
 5/5=2,38=5/2;
 7//1,2,3,16;
 1/18=20,19=15,26=3/3(-5);
 2/9=110/2;
 6/7=2,8=2,9=2,10=2,19=2,28=1/1;
 99/9=1/99;
 ---
 CLR
 ---
 Structure from the checkpoint file:  "6WZ3_small_opt4.chk"
 Charge =  0 Multiplicity = 1
 Redundant internal coordinates found in file.  (old form).
 O,0,-0.3883570129,3.3858028932,-1.2904663809
 O,0,-1.2155222727,1.3435184948,1.3367392842
 O,0,-1.8372061267,-0.6599512073,-0.35057344
 O,0,-0.8741394221,-3.0984436002,0.2891594092
 O,0,2.0309675407,3.0711025309,-2.3200509078
 O,0,4.3620759271,-1.4539903423,0.0739398197
 O,0,3.2910111701,-0.5976858063,-2.116479786
 O,0,0.2066482266,-0.208388226,4.0121392663
 O,0,-2.351314926,3.336026254,1.5801322138
 O,0,-1.9325589822,-0.9102409479,-2.6478091538
 O,0,5.5652068569,0.4366603685,-0.4443278669
 C,0,0.3861240175,0.5478265785,-0.1970629268
 C,0,-0.5658090149,1.7260993579,0.0720119388
 C,0,1.4765470215,0.7868196831,-1.3013148167
 C,0,0.196625353,3.0842153104,0.0849536652
 C,0,-0.3489444784,-0.8288271259,-0.3624233714
 C,0,-0.0913792137,-1.9361091452,0.7094332064
 C,0,2.2077765727,2.237763493,-1.1553049916
 C,0,1.7094764751,3.0017940277,0.082409449
 C,0,1.387047372,-2.4150466895,0.7145377524
 C,0,-1.4085604061,2.2751645793,-1.1086747068
 C,0,2.6553372459,-0.1983721968,-1.1414766881
 C,0,-0.5165823196,-1.5288034615,2.1297262441
 C,0,2.2069822712,-1.2149774244,1.1990868762
 C,0,0.9651608143,0.6713598834,-2.7543360539
 C,0,3.2140735655,-0.5618565778,0.2917274944
 C,0,0.5273265465,-0.7814809044,2.9533781131
 C,0,1.890529636,-0.6168398421,2.3748529952
 C,0,1.5551257503,-3.5826333767,1.7343872178
 C,0,1.8029959032,-2.9961532483,-0.6592741495
 C,0,2.7185010828,0.4493912828,3.0638420459
 C,0,-2.0487687876,2.2325638975,2.0183538091
 C,0,-2.5049695095,-0.7370548329,-1.5739901871
 C,0,-2.4838840586,1.5941174168,3.3168330573
 C,0,5.491522128,-0.7846311476,-0.4221163259
 C,0,-3.9627508651,-0.5731684108,-1.3913946251
 C,0,6.5042247546,-1.7977197899,-0.8822805748
 C,0,-4.7735292502,-0.7134921209,-2.5241715556
 C,0,-4.5282749151,-0.2738871183,-0.1457074813
 C,0,-6.1529983354,-0.5652105037,-2.4104562046
 C,0,-5.9091243488,-0.1223921672,-0.0374681228
 C,0,-6.7212380917,-0.2706622959,-1.1666193897
 H,0,0.9174864976,0.4880166332,0.7429561604
 H,0,-0.2105307786,3.7833580269,0.8113226054
 H,0,-0.1198392035,-1.2684518551,-1.3289054203
 H,0,3.2858026513,2.0639880784,-1.082425055
 H,0,2.0303343308,2.5267208324,1.0161832301
 H,0,2.1482561471,4.0040622263,0.04559686
 H,0,-1.4816882828,1.6508560072,-1.9950563047
 H,0,-2.3633147875,2.6914949853,-0.795824716
 H,0,-0.7729127999,-2.451810595,2.661477976
 H,0,-1.4047204845,-0.8980976597,2.0832773148
 H,0,0.3812698781,1.5490097512,-3.0196880993
 H,0,1.8244751658,0.6235174272,-3.4215698902
 H,0,0.3459710413,-0.2138023355,-2.9024477011
 H,0,3.5808675614,0.3711320884,0.7269198528
 H,0,2.5721752886,-3.9790502659,1.6529928282
 H,0,1.4009768304,-3.2509673496,2.7632741751
 H,0,0.8338688666,-4.364881962,1.4867523135
 H,0,2.8795757701,-3.1753490811,-0.6638217859
 H,0,1.2566095451,-3.9300691355,-0.8038831044
 H,0,1.5726702992,-2.3457506435,-1.5019281275
 H,0,-1.8143357009,-2.778197008,0.2237483157
 H,0,1.0719279261,3.3771920297,-2.2609806191
 H,0,2.5071668447,1.4513366882,2.6676844863
 H,0,2.4312037786,0.4600713944,4.1185592357
 H,0,3.789548806,0.2548463586,2.9735535747
 H,0,-2.8733783347,2.364231375,3.9833438708
 H,0,-3.2830450295,0.8706978136,3.1099212743
 H,0,-1.6483980027,1.0518230786,3.7698999002
 H,0,6.1428786905,-2.2310089843,-1.8218202359
 H,0,6.5922941918,-2.6020585457,-0.1485444299
 H,0,7.4650912476,-1.3112522133,-1.0480541666
 H,0,-4.301897985,-0.9366463539,-3.4731790316
 H,0,-3.8789677106,-0.1504455555,0.7097680904
 H,0,-6.7844993227,-0.6753158506,-3.2836273096
 H,0,-6.3544377124,0.1142196605,0.9214115374
 H,0,-7.7948591373,-0.1526266332,-1.0777517559
 Recover connectivity data from disk.

 GradGradGradGradGradGradGradGradGradGradGradGradGradGradGradGradGradGrad
 Berny optimization.
 Initialization pass.
                           ----------------------------
                           !    Initial Parameters    !
                           ! (Angstroms and Degrees)  !
 --------------------------                            --------------------------
 ! Name  Definition              Value          Derivative Info.                !
 --------------------------------------------------------------------------------
 ! R1    R(1,15)                 1.5248         estimate D2E/DX2                !
 ! R2    R(1,21)                 1.519          estimate D2E/DX2                !
 ! R3    R(1,53)                 2.6375         estimate D2E/DX2                !
 ! R4    R(2,13)                 1.4724         estimate D2E/DX2                !
 ! R5    R(2,32)                 1.3962         estimate D2E/DX2                !
 ! R6    R(3,16)                 1.4979         estimate D2E/DX2                !
 ! R7    R(3,33)                 1.3959         estimate D2E/DX2                !
 ! R8    R(4,17)                 1.463          estimate D2E/DX2                !
 ! R9    R(4,63)                 0.9954         estimate D2E/DX2                !
 ! R10   R(5,18)                 1.443          estimate D2E/DX2                !
 ! R11   R(5,64)                 1.0084         estimate D2E/DX2                !
 ! R12   R(6,26)                 1.4701         estimate D2E/DX2                !
 ! R13   R(6,35)                 1.4035         estimate D2E/DX2                !
 ! R14   R(7,22)                 1.2305         estimate D2E/DX2                !
 ! R15   R(8,27)                 1.2459         estimate D2E/DX2                !
 ! R16   R(9,32)                 1.2252         estimate D2E/DX2                !
 ! R17   R(10,33)                1.2291         estimate D2E/DX2                !
 ! R18   R(11,35)                1.2237         estimate D2E/DX2                !
 ! R19   R(12,13)                1.5385         estimate D2E/DX2                !
 ! R20   R(12,14)                1.5702         estimate D2E/DX2                !
 ! R21   R(12,16)                1.5693         estimate D2E/DX2                !
 ! R22   R(12,43)                1.0815         estimate D2E/DX2                !
 ! R23   R(13,15)                1.5575         estimate D2E/DX2                !
 ! R24   R(13,21)                1.551          estimate D2E/DX2                !
 ! R25   R(14,18)                1.6313         estimate D2E/DX2                !
 ! R26   R(14,22)                1.5446         estimate D2E/DX2                !
 ! R27   R(14,25)                1.5447         estimate D2E/DX2                !
 ! R28   R(15,19)                1.5151         estimate D2E/DX2                !
 ! R29   R(15,44)                1.0873         estimate D2E/DX2                !
 ! R30   R(16,17)                1.5625         estimate D2E/DX2                !
 ! R31   R(16,45)                1.0862         estimate D2E/DX2                !
 ! R32   R(17,20)                1.5541         estimate D2E/DX2                !
 ! R33   R(17,23)                1.5375         estimate D2E/DX2                !
 ! R34   R(18,19)                1.5375         estimate D2E/DX2                !
 ! R35   R(18,46)                1.0944         estimate D2E/DX2                !
 ! R36   R(19,47)                1.0957         estimate D2E/DX2                !
 ! R37   R(19,48)                1.0947         estimate D2E/DX2                !
 ! R38   R(20,24)                1.5321         estimate D2E/DX2                !
 ! R39   R(20,29)                1.5594         estimate D2E/DX2                !
 ! R40   R(20,30)                1.5486         estimate D2E/DX2                !
 ! R41   R(21,49)                1.0866         estimate D2E/DX2                !
 ! R42   R(21,50)                1.0875         estimate D2E/DX2                !
 ! R43   R(22,26)                1.5806         estimate D2E/DX2                !
 ! R44   R(23,27)                1.5253         estimate D2E/DX2                !
 ! R45   R(23,51)                1.0956         estimate D2E/DX2                !
 ! R46   R(23,52)                1.0903         estimate D2E/DX2                !
 ! R47   R(24,26)                1.5047         estimate D2E/DX2                !
 ! R48   R(24,28)                1.3566         estimate D2E/DX2                !
 ! R49   R(25,53)                1.087          estimate D2E/DX2                !
 ! R50   R(25,54)                1.089          estimate D2E/DX2                !
 ! R51   R(25,55)                1.0903         estimate D2E/DX2                !
 ! R52   R(26,56)                1.0929         estimate D2E/DX2                !
 ! R53   R(27,28)                1.49           estimate D2E/DX2                !
 ! R54   R(28,31)                1.5156         estimate D2E/DX2                !
 ! R55   R(29,57)                1.0946         estimate D2E/DX2                !
 ! R56   R(29,58)                1.092          estimate D2E/DX2                !
 ! R57   R(29,59)                1.0925         estimate D2E/DX2                !
 ! R58   R(30,60)                1.0914         estimate D2E/DX2                !
 ! R59   R(30,61)                1.0916         estimate D2E/DX2                !
 ! R60   R(30,62)                1.0891         estimate D2E/DX2                !
 ! R61   R(31,65)                1.098          estimate D2E/DX2                !
 ! R62   R(31,66)                1.0932         estimate D2E/DX2                !
 ! R63   R(31,67)                1.0923         estimate D2E/DX2                !
 ! R64   R(32,34)                1.511          estimate D2E/DX2                !
 ! R65   R(33,36)                1.4783         estimate D2E/DX2                !
 ! R66   R(34,68)                1.0904         estimate D2E/DX2                !
 ! R67   R(34,69)                1.0976         estimate D2E/DX2                !
 ! R68   R(34,70)                1.0943         estimate D2E/DX2                !
 ! R69   R(35,37)                1.5045         estimate D2E/DX2                !
 ! R70   R(36,38)                1.4001         estimate D2E/DX2                !
 ! R71   R(36,39)                1.4004         estimate D2E/DX2                !
 ! R72   R(37,71)                1.0959         estimate D2E/DX2                !
 ! R73   R(37,72)                1.0923         estimate D2E/DX2                !
 ! R74   R(37,73)                1.0897         estimate D2E/DX2                !
 ! R75   R(38,40)                1.3921         estimate D2E/DX2                !
 ! R76   R(38,74)                1.083          estimate D2E/DX2                !
 ! R77   R(39,41)                1.3933         estimate D2E/DX2                !
 ! R78   R(39,75)                1.0811         estimate D2E/DX2                !
 ! R79   R(40,42)                1.3989         estimate D2E/DX2                !
 ! R80   R(40,76)                1.0832         estimate D2E/DX2                !
 ! R81   R(41,42)                1.3987         estimate D2E/DX2                !
 ! R82   R(41,77)                1.0834         estimate D2E/DX2                !
 ! R83   R(42,78)                1.0837         estimate D2E/DX2                !
 ! A1    A(15,1,21)             90.2921         estimate D2E/DX2                !
 ! A2    A(15,1,53)            109.9814         estimate D2E/DX2                !
 ! A3    A(21,1,53)             76.4233         estimate D2E/DX2                !
 ! A4    A(13,2,32)            121.1465         estimate D2E/DX2                !
 ! A5    A(16,3,33)            117.5253         estimate D2E/DX2                !
 ! A6    A(17,4,63)            105.5832         estimate D2E/DX2                !
 ! A7    A(18,5,64)            104.1541         estimate D2E/DX2                !
 ! A8    A(26,6,35)            113.0391         estimate D2E/DX2                !
 ! A9    A(13,12,14)           115.8566         estimate D2E/DX2                !
 ! A10   A(13,12,16)           113.606          estimate D2E/DX2                !
 ! A11   A(13,12,43)           101.2067         estimate D2E/DX2                !
 ! A12   A(14,12,16)           112.6245         estimate D2E/DX2                !
 ! A13   A(14,12,43)           106.17           estimate D2E/DX2                !
 ! A14   A(16,12,43)           105.8555         estimate D2E/DX2                !
 ! A15   A(2,13,12)            102.9592         estimate D2E/DX2                !
 ! A16   A(2,13,15)            115.8122         estimate D2E/DX2                !
 ! A17   A(2,13,21)            120.4026         estimate D2E/DX2                !
 ! A18   A(12,13,15)           111.4923         estimate D2E/DX2                !
 ! A19   A(12,13,21)           118.3058         estimate D2E/DX2                !
 ! A20   A(15,13,21)            87.9155         estimate D2E/DX2                !
 ! A21   A(12,14,18)           112.5638         estimate D2E/DX2                !
 ! A22   A(12,14,22)           111.1084         estimate D2E/DX2                !
 ! A23   A(12,14,25)           114.8495         estimate D2E/DX2                !
 ! A24   A(18,14,22)           102.4718         estimate D2E/DX2                !
 ! A25   A(18,14,25)           107.4014         estimate D2E/DX2                !
 ! A26   A(22,14,25)           107.5972         estimate D2E/DX2                !
 ! A27   A(1,15,13)             88.6918         estimate D2E/DX2                !
 ! A28   A(1,15,19)            113.0994         estimate D2E/DX2                !
 ! A29   A(1,15,44)            109.3763         estimate D2E/DX2                !
 ! A30   A(13,15,19)           116.1891         estimate D2E/DX2                !
 ! A31   A(13,15,44)           112.5152         estimate D2E/DX2                !
 ! A32   A(19,15,44)           114.2059         estimate D2E/DX2                !
 ! A33   A(3,16,12)            111.4479         estimate D2E/DX2                !
 ! A34   A(3,16,17)            103.784          estimate D2E/DX2                !
 ! A35   A(3,16,45)            105.2031         estimate D2E/DX2                !
 ! A36   A(12,16,17)           118.175          estimate D2E/DX2                !
 ! A37   A(12,16,45)           110.4873         estimate D2E/DX2                !
 ! A38   A(17,16,45)           106.7859         estimate D2E/DX2                !
 ! A39   A(4,17,16)            106.1271         estimate D2E/DX2                !
 ! A40   A(4,17,20)            105.3723         estimate D2E/DX2                !
 ! A41   A(4,17,23)            109.1397         estimate D2E/DX2                !
 ! A42   A(16,17,20)           112.1774         estimate D2E/DX2                !
 ! A43   A(16,17,23)           113.6019         estimate D2E/DX2                !
 ! A44   A(20,17,23)           109.9804         estimate D2E/DX2                !
 ! A45   A(5,18,14)            112.735          estimate D2E/DX2                !
 ! A46   A(5,18,19)            108.8494         estimate D2E/DX2                !
 ! A47   A(5,18,46)            105.4352         estimate D2E/DX2                !
 ! A48   A(14,18,19)           111.6387         estimate D2E/DX2                !
 ! A49   A(14,18,46)           107.8348         estimate D2E/DX2                !
 ! A50   A(19,18,46)           110.1542         estimate D2E/DX2                !
 ! A51   A(15,19,18)           110.6095         estimate D2E/DX2                !
 ! A52   A(15,19,47)           108.3338         estimate D2E/DX2                !
 ! A53   A(15,19,48)           110.516          estimate D2E/DX2                !
 ! A54   A(18,19,47)           112.066          estimate D2E/DX2                !
 ! A55   A(18,19,48)           107.3365         estimate D2E/DX2                !
 ! A56   A(47,19,48)           107.9535         estimate D2E/DX2                !
 ! A57   A(17,20,24)           105.5911         estimate D2E/DX2                !
 ! A58   A(17,20,29)           109.5994         estimate D2E/DX2                !
 ! A59   A(17,20,30)           111.6083         estimate D2E/DX2                !
 ! A60   A(24,20,29)           108.7821         estimate D2E/DX2                !
 ! A61   A(24,20,30)           115.5161         estimate D2E/DX2                !
 ! A62   A(29,20,30)           105.6812         estimate D2E/DX2                !
 ! A63   A(1,21,13)             89.1409         estimate D2E/DX2                !
 ! A64   A(1,21,49)            111.5709         estimate D2E/DX2                !
 ! A65   A(1,21,50)            110.1296         estimate D2E/DX2                !
 ! A66   A(13,21,49)           117.0083         estimate D2E/DX2                !
 ! A67   A(13,21,50)           113.1749         estimate D2E/DX2                !
 ! A68   A(49,21,50)           113.2979         estimate D2E/DX2                !
 ! A69   A(7,22,14)            121.2816         estimate D2E/DX2                !
 ! A70   A(7,22,26)            117.4657         estimate D2E/DX2                !
 ! A71   A(14,22,26)           120.6831         estimate D2E/DX2                !
 ! A72   A(17,23,27)           116.0617         estimate D2E/DX2                !
 ! A73   A(17,23,51)           106.8499         estimate D2E/DX2                !
 ! A74   A(17,23,52)           109.8262         estimate D2E/DX2                !
 ! A75   A(27,23,51)           108.1068         estimate D2E/DX2                !
 ! A76   A(27,23,52)           107.282          estimate D2E/DX2                !
 ! A77   A(51,23,52)           108.5076         estimate D2E/DX2                !
 ! A78   A(20,24,26)           120.4957         estimate D2E/DX2                !
 ! A79   A(20,24,28)           119.6459         estimate D2E/DX2                !
 ! A80   A(26,24,28)           119.1691         estimate D2E/DX2                !
 ! A81   A(14,25,53)           110.31           estimate D2E/DX2                !
 ! A82   A(14,25,54)           108.5655         estimate D2E/DX2                !
 ! A83   A(14,25,55)           112.1146         estimate D2E/DX2                !
 ! A84   A(53,25,54)           108.0449         estimate D2E/DX2                !
 ! A85   A(53,25,55)           108.4972         estimate D2E/DX2                !
 ! A86   A(54,25,55)           109.2213         estimate D2E/DX2                !
 ! A87   A(6,26,22)            106.3356         estimate D2E/DX2                !
 ! A88   A(6,26,24)            110.4005         estimate D2E/DX2                !
 ! A89   A(6,26,56)            108.3589         estimate D2E/DX2                !
 ! A90   A(22,26,24)           114.205          estimate D2E/DX2                !
 ! A91   A(22,26,56)           106.4624         estimate D2E/DX2                !
 ! A92   A(24,26,56)           110.7969         estimate D2E/DX2                !
 ! A93   A(8,27,23)            120.5368         estimate D2E/DX2                !
 ! A94   A(8,27,28)            120.9714         estimate D2E/DX2                !
 ! A95   A(23,27,28)           118.0743         estimate D2E/DX2                !
 ! A96   A(24,28,27)           120.0805         estimate D2E/DX2                !
 ! A97   A(24,28,31)           125.222          estimate D2E/DX2                !
 ! A98   A(27,28,31)           113.6427         estimate D2E/DX2                !
 ! A99   A(20,29,57)           108.8254         estimate D2E/DX2                !
 ! A100  A(20,29,58)           111.9379         estimate D2E/DX2                !
 ! A101  A(20,29,59)           108.4656         estimate D2E/DX2                !
 ! A102  A(57,29,58)           108.1333         estimate D2E/DX2                !
 ! A103  A(57,29,59)           109.7103         estimate D2E/DX2                !
 ! A104  A(58,29,59)           109.7474         estimate D2E/DX2                !
 ! A105  A(20,30,60)           109.2848         estimate D2E/DX2                !
 ! A106  A(20,30,61)           107.7052         estimate D2E/DX2                !
 ! A107  A(20,30,62)           113.9224         estimate D2E/DX2                !
 ! A108  A(60,30,61)           110.653          estimate D2E/DX2                !
 ! A109  A(60,30,62)           107.6643         estimate D2E/DX2                !
 ! A110  A(61,30,62)           107.6119         estimate D2E/DX2                !
 ! A111  A(28,31,65)           111.8889         estimate D2E/DX2                !
 ! A112  A(28,31,66)           107.5715         estimate D2E/DX2                !
 ! A113  A(28,31,67)           111.8877         estimate D2E/DX2                !
 ! A114  A(65,31,66)           106.775          estimate D2E/DX2                !
 ! A115  A(65,31,67)           108.75           estimate D2E/DX2                !
 ! A116  A(66,31,67)           109.8268         estimate D2E/DX2                !
 ! A117  A(2,32,9)             123.1096         estimate D2E/DX2                !
 ! A118  A(2,32,34)            108.805          estimate D2E/DX2                !
 ! A119  A(9,32,34)            128.0834         estimate D2E/DX2                !
 ! A120  A(3,33,10)            123.4142         estimate D2E/DX2                !
 ! A121  A(3,33,36)            110.9378         estimate D2E/DX2                !
 ! A122  A(10,33,36)           125.6464         estimate D2E/DX2                !
 ! A123  A(32,34,68)           109.2521         estimate D2E/DX2                !
 ! A124  A(32,34,69)           109.0355         estimate D2E/DX2                !
 ! A125  A(32,34,70)           110.2032         estimate D2E/DX2                !
 ! A126  A(68,34,69)           108.7009         estimate D2E/DX2                !
 ! A127  A(68,34,70)           111.6944         estimate D2E/DX2                !
 ! A128  A(69,34,70)           107.8981         estimate D2E/DX2                !
 ! A129  A(6,35,11)            122.0633         estimate D2E/DX2                !
 ! A130  A(6,35,37)            109.1857         estimate D2E/DX2                !
 ! A131  A(11,35,37)           128.751          estimate D2E/DX2                !
 ! A132  A(33,36,38)           117.388          estimate D2E/DX2                !
 ! A133  A(33,36,39)           122.1267         estimate D2E/DX2                !
 ! A134  A(38,36,39)           120.4813         estimate D2E/DX2                !
 ! A135  A(35,37,71)           107.848          estimate D2E/DX2                !
 ! A136  A(35,37,72)           110.1611         estimate D2E/DX2                !
 ! A137  A(35,37,73)           109.8434         estimate D2E/DX2                !
 ! A138  A(71,37,72)           108.1397         estimate D2E/DX2                !
 ! A139  A(71,37,73)           109.6835         estimate D2E/DX2                !
 ! A140  A(72,37,73)           111.0904         estimate D2E/DX2                !
 ! A141  A(36,38,40)           119.8072         estimate D2E/DX2                !
 ! A142  A(36,38,74)           118.5189         estimate D2E/DX2                !
 ! A143  A(40,38,74)           121.6738         estimate D2E/DX2                !
 ! A144  A(36,39,41)           119.508          estimate D2E/DX2                !
 ! A145  A(36,39,75)           119.0624         estimate D2E/DX2                !
 ! A146  A(41,39,75)           121.4228         estimate D2E/DX2                !
 ! A147  A(38,40,42)           119.8418         estimate D2E/DX2                !
 ! A148  A(38,40,76)           120.0687         estimate D2E/DX2                !
 ! A149  A(42,40,76)           120.0893         estimate D2E/DX2                !
 ! A150  A(39,41,42)           120.0766         estimate D2E/DX2                !
 ! A151  A(39,41,77)           119.9901         estimate D2E/DX2                !
 ! A152  A(42,41,77)           119.9328         estimate D2E/DX2                !
 ! A153  A(40,42,41)           120.283          estimate D2E/DX2                !
 ! A154  A(40,42,78)           119.8858         estimate D2E/DX2                !
 ! A155  A(41,42,78)           119.8307         estimate D2E/DX2                !
 ! A156  A(1,53,25)            123.9851         estimate D2E/DX2                !
 ! D1    D(21,1,15,13)          15.1022         estimate D2E/DX2                !
 ! D2    D(21,1,15,19)         133.1488         estimate D2E/DX2                !
 ! D3    D(21,1,15,44)         -98.3506         estimate D2E/DX2                !
 ! D4    D(53,1,15,13)         -60.5426         estimate D2E/DX2                !
 ! D5    D(53,1,15,19)          57.504          estimate D2E/DX2                !
 ! D6    D(53,1,15,44)        -173.9954         estimate D2E/DX2                !
 ! D7    D(15,1,21,13)         -15.1648         estimate D2E/DX2                !
 ! D8    D(15,1,21,49)        -134.0101         estimate D2E/DX2                !
 ! D9    D(15,1,21,50)          99.2722         estimate D2E/DX2                !
 ! D10   D(53,1,21,13)          95.3416         estimate D2E/DX2                !
 ! D11   D(53,1,21,49)         -23.5037         estimate D2E/DX2                !
 ! D12   D(53,1,21,50)        -150.2214         estimate D2E/DX2                !
 ! D13   D(15,1,53,25)           4.3898         estimate D2E/DX2                !
 ! D14   D(21,1,53,25)         -80.8935         estimate D2E/DX2                !
 ! D15   D(32,2,13,12)         172.2111         estimate D2E/DX2                !
 ! D16   D(32,2,13,15)          50.2784         estimate D2E/DX2                !
 ! D17   D(32,2,13,21)         -53.4286         estimate D2E/DX2                !
 ! D18   D(13,2,32,9)            4.3741         estimate D2E/DX2                !
 ! D19   D(13,2,32,34)        -176.0995         estimate D2E/DX2                !
 ! D20   D(33,3,16,12)         103.7282         estimate D2E/DX2                !
 ! D21   D(33,3,16,17)        -128.0492         estimate D2E/DX2                !
 ! D22   D(33,3,16,45)         -16.0365         estimate D2E/DX2                !
 ! D23   D(16,3,33,10)          -1.3661         estimate D2E/DX2                !
 ! D24   D(16,3,33,36)         179.0666         estimate D2E/DX2                !
 ! D25   D(63,4,17,16)         -57.0419         estimate D2E/DX2                !
 ! D26   D(63,4,17,20)        -176.1864         estimate D2E/DX2                !
 ! D27   D(63,4,17,23)          65.7451         estimate D2E/DX2                !
 ! D28   D(64,5,18,14)          74.0615         estimate D2E/DX2                !
 ! D29   D(64,5,18,19)         -50.3773         estimate D2E/DX2                !
 ! D30   D(64,5,18,46)        -168.5386         estimate D2E/DX2                !
 ! D31   D(35,6,26,22)          73.1647         estimate D2E/DX2                !
 ! D32   D(35,6,26,24)        -162.4438         estimate D2E/DX2                !
 ! D33   D(35,6,26,56)         -40.9403         estimate D2E/DX2                !
 ! D34   D(26,6,35,11)          11.6906         estimate D2E/DX2                !
 ! D35   D(26,6,35,37)        -168.2551         estimate D2E/DX2                !
 ! D36   D(14,12,13,2)        -166.3593         estimate D2E/DX2                !
 ! D37   D(14,12,13,15)        -41.5532         estimate D2E/DX2                !
 ! D38   D(14,12,13,21)         58.099          estimate D2E/DX2                !
 ! D39   D(16,12,13,2)          60.9283         estimate D2E/DX2                !
 ! D40   D(16,12,13,15)       -174.2655         estimate D2E/DX2                !
 ! D41   D(16,12,13,21)        -74.6134         estimate D2E/DX2                !
 ! D42   D(43,12,13,2)         -52.0599         estimate D2E/DX2                !
 ! D43   D(43,12,13,15)         72.7462         estimate D2E/DX2                !
 ! D44   D(43,12,13,21)        172.3984         estimate D2E/DX2                !
 ! D45   D(13,12,14,18)         45.0758         estimate D2E/DX2                !
 ! D46   D(13,12,14,22)        159.3489         estimate D2E/DX2                !
 ! D47   D(13,12,14,25)        -78.2453         estimate D2E/DX2                !
 ! D48   D(16,12,14,18)        178.2384         estimate D2E/DX2                !
 ! D49   D(16,12,14,22)        -67.4885         estimate D2E/DX2                !
 ! D50   D(16,12,14,25)         54.9173         estimate D2E/DX2                !
 ! D51   D(43,12,14,18)        -66.3558         estimate D2E/DX2                !
 ! D52   D(43,12,14,22)         47.9173         estimate D2E/DX2                !
 ! D53   D(43,12,14,25)        170.3231         estimate D2E/DX2                !
 ! D54   D(13,12,16,3)           5.4979         estimate D2E/DX2                !
 ! D55   D(13,12,16,17)       -114.557          estimate D2E/DX2                !
 ! D56   D(13,12,16,45)        122.0853         estimate D2E/DX2                !
 ! D57   D(14,12,16,3)        -128.7494         estimate D2E/DX2                !
 ! D58   D(14,12,16,17)        111.1957         estimate D2E/DX2                !
 ! D59   D(14,12,16,45)        -12.1621         estimate D2E/DX2                !
 ! D60   D(43,12,16,3)         115.6556         estimate D2E/DX2                !
 ! D61   D(43,12,16,17)         -4.3992         estimate D2E/DX2                !
 ! D62   D(43,12,16,45)       -127.757          estimate D2E/DX2                !
 ! D63   D(2,13,15,1)         -137.8128         estimate D2E/DX2                !
 ! D64   D(2,13,15,19)         106.9673         estimate D2E/DX2                !
 ! D65   D(2,13,15,44)         -27.3394         estimate D2E/DX2                !
 ! D66   D(12,13,15,1)         104.9175         estimate D2E/DX2                !
 ! D67   D(12,13,15,19)        -10.3024         estimate D2E/DX2                !
 ! D68   D(12,13,15,44)       -144.6091         estimate D2E/DX2                !
 ! D69   D(21,13,15,1)         -14.793          estimate D2E/DX2                !
 ! D70   D(21,13,15,19)       -130.0129         estimate D2E/DX2                !
 ! D71   D(21,13,15,44)         95.6804         estimate D2E/DX2                !
 ! D72   D(2,13,21,1)          133.7834         estimate D2E/DX2                !
 ! D73   D(2,13,21,49)        -112.3217         estimate D2E/DX2                !
 ! D74   D(2,13,21,50)          22.1927         estimate D2E/DX2                !
 ! D75   D(12,13,21,1)         -98.5305         estimate D2E/DX2                !
 ! D76   D(12,13,21,49)         15.3643         estimate D2E/DX2                !
 ! D77   D(12,13,21,50)        149.8788         estimate D2E/DX2                !
 ! D78   D(15,13,21,1)          14.8482         estimate D2E/DX2                !
 ! D79   D(15,13,21,49)        128.743          estimate D2E/DX2                !
 ! D80   D(15,13,21,50)        -96.7426         estimate D2E/DX2                !
 ! D81   D(12,14,18,5)        -119.713          estimate D2E/DX2                !
 ! D82   D(12,14,18,19)          3.1812         estimate D2E/DX2                !
 ! D83   D(12,14,18,46)        124.3137         estimate D2E/DX2                !
 ! D84   D(22,14,18,5)         120.8599         estimate D2E/DX2                !
 ! D85   D(22,14,18,19)       -116.2459         estimate D2E/DX2                !
 ! D86   D(22,14,18,46)          4.8866         estimate D2E/DX2                !
 ! D87   D(25,14,18,5)           7.6688         estimate D2E/DX2                !
 ! D88   D(25,14,18,19)        130.563          estimate D2E/DX2                !
 ! D89   D(25,14,18,46)       -108.3045         estimate D2E/DX2                !
 ! D90   D(12,14,22,7)         148.4717         estimate D2E/DX2                !
 ! D91   D(12,14,22,26)        -40.4024         estimate D2E/DX2                !
 ! D92   D(18,14,22,7)         -91.0885         estimate D2E/DX2                !
 ! D93   D(18,14,22,26)         80.0375         estimate D2E/DX2                !
 ! D94   D(25,14,22,7)          21.9581         estimate D2E/DX2                !
 ! D95   D(25,14,22,26)       -166.916          estimate D2E/DX2                !
 ! D96   D(12,14,25,53)         74.7161         estimate D2E/DX2                !
 ! D97   D(12,14,25,54)       -167.0718         estimate D2E/DX2                !
 ! D98   D(12,14,25,55)        -46.3181         estimate D2E/DX2                !
 ! D99   D(18,14,25,53)        -51.3195         estimate D2E/DX2                !
 ! D100  D(18,14,25,54)         66.8926         estimate D2E/DX2                !
 ! D101  D(18,14,25,55)       -172.3537         estimate D2E/DX2                !
 ! D102  D(22,14,25,53)       -161.0033         estimate D2E/DX2                !
 ! D103  D(22,14,25,54)        -42.7912         estimate D2E/DX2                !
 ! D104  D(22,14,25,55)         77.9625         estimate D2E/DX2                !
 ! D105  D(1,15,19,18)         -41.8198         estimate D2E/DX2                !
 ! D106  D(1,15,19,47)        -165.0115         estimate D2E/DX2                !
 ! D107  D(1,15,19,48)          76.9075         estimate D2E/DX2                !
 ! D108  D(13,15,19,18)         58.6732         estimate D2E/DX2                !
 ! D109  D(13,15,19,47)        -64.5184         estimate D2E/DX2                !
 ! D110  D(13,15,19,48)        177.4005         estimate D2E/DX2                !
 ! D111  D(44,15,19,18)       -167.7783         estimate D2E/DX2                !
 ! D112  D(44,15,19,47)         69.0301         estimate D2E/DX2                !
 ! D113  D(44,15,19,48)        -49.051          estimate D2E/DX2                !
 ! D114  D(3,16,17,4)           57.1605         estimate D2E/DX2                !
 ! D115  D(3,16,17,20)         171.7341         estimate D2E/DX2                !
 ! D116  D(3,16,17,23)         -62.7599         estimate D2E/DX2                !
 ! D117  D(12,16,17,4)        -178.8866         estimate D2E/DX2                !
 ! D118  D(12,16,17,20)        -64.3129         estimate D2E/DX2                !
 ! D119  D(12,16,17,23)         61.1931         estimate D2E/DX2                !
 ! D120  D(45,16,17,4)         -53.6966         estimate D2E/DX2                !
 ! D121  D(45,16,17,20)         60.877          estimate D2E/DX2                !
 ! D122  D(45,16,17,23)       -173.617          estimate D2E/DX2                !
 ! D123  D(4,17,20,24)        -178.1658         estimate D2E/DX2                !
 ! D124  D(4,17,20,29)         -61.1532         estimate D2E/DX2                !
 ! D125  D(4,17,20,30)          55.5671         estimate D2E/DX2                !
 ! D126  D(16,17,20,24)         66.8            estimate D2E/DX2                !
 ! D127  D(16,17,20,29)       -176.1874         estimate D2E/DX2                !
 ! D128  D(16,17,20,30)        -59.4671         estimate D2E/DX2                !
 ! D129  D(23,17,20,24)        -60.6642         estimate D2E/DX2                !
 ! D130  D(23,17,20,29)         56.3484         estimate D2E/DX2                !
 ! D131  D(23,17,20,30)        173.0687         estimate D2E/DX2                !
 ! D132  D(4,17,23,27)         154.579          estimate D2E/DX2                !
 ! D133  D(4,17,23,51)          33.9413         estimate D2E/DX2                !
 ! D134  D(4,17,23,52)         -83.5597         estimate D2E/DX2                !
 ! D135  D(16,17,23,27)        -87.2242         estimate D2E/DX2                !
 ! D136  D(16,17,23,51)        152.138          estimate D2E/DX2                !
 ! D137  D(16,17,23,52)         34.6371         estimate D2E/DX2                !
 ! D138  D(20,17,23,27)         39.4438         estimate D2E/DX2                !
 ! D139  D(20,17,23,51)        -81.194          estimate D2E/DX2                !
 ! D140  D(20,17,23,52)        161.3051         estimate D2E/DX2                !
 ! D141  D(5,18,19,15)          72.5162         estimate D2E/DX2                !
 ! D142  D(5,18,19,47)        -166.482          estimate D2E/DX2                !
 ! D143  D(5,18,19,48)         -48.1241         estimate D2E/DX2                !
 ! D144  D(14,18,19,15)        -52.5669         estimate D2E/DX2                !
 ! D145  D(14,18,19,47)         68.435          estimate D2E/DX2                !
 ! D146  D(14,18,19,48)       -173.2071         estimate D2E/DX2                !
 ! D147  D(46,18,19,15)       -172.3413         estimate D2E/DX2                !
 ! D148  D(46,18,19,47)        -51.3395         estimate D2E/DX2                !
 ! D149  D(46,18,19,48)         67.0184         estimate D2E/DX2                !
 ! D150  D(17,20,24,26)       -116.0574         estimate D2E/DX2                !
 ! D151  D(17,20,24,28)         54.3506         estimate D2E/DX2                !
 ! D152  D(29,20,24,26)        126.3786         estimate D2E/DX2                !
 ! D153  D(29,20,24,28)        -63.2134         estimate D2E/DX2                !
 ! D154  D(30,20,24,26)          7.7801         estimate D2E/DX2                !
 ! D155  D(30,20,24,28)        178.1881         estimate D2E/DX2                !
 ! D156  D(17,20,29,57)        174.1615         estimate D2E/DX2                !
 ! D157  D(17,20,29,58)        -66.3796         estimate D2E/DX2                !
 ! D158  D(17,20,29,59)         54.8531         estimate D2E/DX2                !
 ! D159  D(24,20,29,57)        -70.8498         estimate D2E/DX2                !
 ! D160  D(24,20,29,58)         48.6091         estimate D2E/DX2                !
 ! D161  D(24,20,29,59)        169.8418         estimate D2E/DX2                !
 ! D162  D(30,20,29,57)         53.7649         estimate D2E/DX2                !
 ! D163  D(30,20,29,58)        173.2238         estimate D2E/DX2                !
 ! D164  D(30,20,29,59)        -65.5435         estimate D2E/DX2                !
 ! D165  D(17,20,30,60)        171.2607         estimate D2E/DX2                !
 ! D166  D(17,20,30,61)        -68.4772         estimate D2E/DX2                !
 ! D167  D(17,20,30,62)         50.8028         estimate D2E/DX2                !
 ! D168  D(24,20,30,60)         50.6372         estimate D2E/DX2                !
 ! D169  D(24,20,30,61)        170.8993         estimate D2E/DX2                !
 ! D170  D(24,20,30,62)        -69.8207         estimate D2E/DX2                !
 ! D171  D(29,20,30,60)        -69.665          estimate D2E/DX2                !
 ! D172  D(29,20,30,61)         50.5972         estimate D2E/DX2                !
 ! D173  D(29,20,30,62)        169.8771         estimate D2E/DX2                !
 ! D174  D(7,22,26,6)           -5.5784         estimate D2E/DX2                !
 ! D175  D(7,22,26,24)        -127.5845         estimate D2E/DX2                !
 ! D176  D(7,22,26,56)         109.8167         estimate D2E/DX2                !
 ! D177  D(14,22,26,6)        -177.0336         estimate D2E/DX2                !
 ! D178  D(14,22,26,24)         60.9604         estimate D2E/DX2                !
 ! D179  D(14,22,26,56)        -61.6384         estimate D2E/DX2                !
 ! D180  D(17,23,27,8)         167.311          estimate D2E/DX2                !
 ! D181  D(17,23,27,28)         -5.3452         estimate D2E/DX2                !
 ! D182  D(51,23,27,8)         -72.7285         estimate D2E/DX2                !
 ! D183  D(51,23,27,28)        114.6152         estimate D2E/DX2                !
 ! D184  D(52,23,27,8)          44.1107         estimate D2E/DX2                !
 ! D185  D(52,23,27,28)       -128.5455         estimate D2E/DX2                !
 ! D186  D(20,24,26,6)         -69.626          estimate D2E/DX2                !
 ! D187  D(20,24,26,22)         50.1222         estimate D2E/DX2                !
 ! D188  D(20,24,26,56)        170.3266         estimate D2E/DX2                !
 ! D189  D(28,24,26,6)         119.9207         estimate D2E/DX2                !
 ! D190  D(28,24,26,22)       -120.3311         estimate D2E/DX2                !
 ! D191  D(28,24,26,56)         -0.1267         estimate D2E/DX2                !
 ! D192  D(20,24,28,27)        -21.1677         estimate D2E/DX2                !
 ! D193  D(20,24,28,31)        171.3475         estimate D2E/DX2                !
 ! D194  D(26,24,28,27)        149.368          estimate D2E/DX2                !
 ! D195  D(26,24,28,31)        -18.1169         estimate D2E/DX2                !
 ! D196  D(14,25,53,1)          -9.8413         estimate D2E/DX2                !
 ! D197  D(54,25,53,1)        -128.3723         estimate D2E/DX2                !
 ! D198  D(55,25,53,1)         113.327          estimate D2E/DX2                !
 ! D199  D(8,27,28,24)        -177.9075         estimate D2E/DX2                !
 ! D200  D(8,27,28,31)          -9.0498         estimate D2E/DX2                !
 ! D201  D(23,27,28,24)         -5.2847         estimate D2E/DX2                !
 ! D202  D(23,27,28,31)        163.5731         estimate D2E/DX2                !
 ! D203  D(24,28,31,65)         83.9056         estimate D2E/DX2                !
 ! D204  D(24,28,31,66)       -159.1265         estimate D2E/DX2                !
 ! D205  D(24,28,31,67)        -38.4202         estimate D2E/DX2                !
 ! D206  D(27,28,31,65)        -84.2828         estimate D2E/DX2                !
 ! D207  D(27,28,31,66)         32.6851         estimate D2E/DX2                !
 ! D208  D(27,28,31,67)        153.3914         estimate D2E/DX2                !
 ! D209  D(2,32,34,68)         163.0858         estimate D2E/DX2                !
 ! D210  D(2,32,34,69)         -78.2439         estimate D2E/DX2                !
 ! D211  D(2,32,34,70)          40.0101         estimate D2E/DX2                !
 ! D212  D(9,32,34,68)         -17.4182         estimate D2E/DX2                !
 ! D213  D(9,32,34,69)         101.2521         estimate D2E/DX2                !
 ! D214  D(9,32,34,70)        -140.4939         estimate D2E/DX2                !
 ! D215  D(3,33,36,38)        -175.9977         estimate D2E/DX2                !
 ! D216  D(3,33,36,39)           4.7301         estimate D2E/DX2                !
 ! D217  D(10,33,36,38)          4.4468         estimate D2E/DX2                !
 ! D218  D(10,33,36,39)       -174.8254         estimate D2E/DX2                !
 ! D219  D(6,35,37,71)          73.7471         estimate D2E/DX2                !
 ! D220  D(6,35,37,72)         -44.0698         estimate D2E/DX2                !
 ! D221  D(6,35,37,73)        -166.7552         estimate D2E/DX2                !
 ! D222  D(11,35,37,71)       -106.1938         estimate D2E/DX2                !
 ! D223  D(11,35,37,72)        135.9893         estimate D2E/DX2                !
 ! D224  D(11,35,37,73)         13.3039         estimate D2E/DX2                !
 ! D225  D(33,36,38,40)       -179.8014         estimate D2E/DX2                !
 ! D226  D(33,36,38,74)          0.1913         estimate D2E/DX2                !
 ! D227  D(39,36,38,40)         -0.5166         estimate D2E/DX2                !
 ! D228  D(39,36,38,74)        179.4761         estimate D2E/DX2                !
 ! D229  D(33,36,39,41)        179.5734         estimate D2E/DX2                !
 ! D230  D(33,36,39,75)          0.503          estimate D2E/DX2                !
 ! D231  D(38,36,39,41)          0.3233         estimate D2E/DX2                !
 ! D232  D(38,36,39,75)       -178.7471         estimate D2E/DX2                !
 ! D233  D(36,38,40,42)          0.2998         estimate D2E/DX2                !
 ! D234  D(36,38,40,76)       -179.848          estimate D2E/DX2                !
 ! D235  D(74,38,40,42)       -179.6926         estimate D2E/DX2                !
 ! D236  D(74,38,40,76)          0.1595         estimate D2E/DX2                !
 ! D237  D(36,39,41,42)          0.0841         estimate D2E/DX2                !
 ! D238  D(36,39,41,77)       -179.6841         estimate D2E/DX2                !
 ! D239  D(75,39,41,42)        179.1319         estimate D2E/DX2                !
 ! D240  D(75,39,41,77)         -0.6363         estimate D2E/DX2                !
 ! D241  D(38,40,42,41)          0.1054         estimate D2E/DX2                !
 ! D242  D(38,40,42,78)        179.8475         estimate D2E/DX2                !
 ! D243  D(76,40,42,41)       -179.7467         estimate D2E/DX2                !
 ! D244  D(76,40,42,78)         -0.0047         estimate D2E/DX2                !
 ! D245  D(39,41,42,40)         -0.2989         estimate D2E/DX2                !
 ! D246  D(39,41,42,78)        179.9589         estimate D2E/DX2                !
 ! D247  D(77,41,42,40)        179.4695         estimate D2E/DX2                !
 ! D248  D(77,41,42,78)         -0.2727         estimate D2E/DX2                !
 --------------------------------------------------------------------------------
 Trust Radius=3.00D-01 FncErr=1.00D-07 GrdErr=1.00D-06 EigMax=2.50D+02 EigMin=1.00D-04
 Number of steps in this run=    468 maximum allowed number of steps=    468.
 GradGradGradGradGradGradGradGradGradGradGradGradGradGradGradGradGradGrad

 Stoichiometry    C31H36O11
 Framework group  C1[X(C31H36O11)]
 Deg. of freedom   228
 Full point group                 C1      NOp   1
 Largest Abelian subgroup         C1      NOp   1
 Largest concise Abelian subgroup C1      NOp   1
                         Standard orientation:                         
 ---------------------------------------------------------------------
 Center     Atomic      Atomic             Coordinates (Angstroms)
 Number     Number       Type             X           Y           Z
 ---------------------------------------------------------------------
      1          8           0       -0.927380    3.515969    0.080783
      2          8           0       -1.368651    0.560216    1.761895
      3          8           0       -1.883587   -0.732262   -0.542828
      4          8           0       -0.632689   -3.098672   -0.886858
      5          8           0        1.441401    3.900328   -1.038750
      6          8           0        4.379084   -0.873767   -0.569961
      7          8           0        3.087791    0.599149   -2.255623
      8          8           0        0.374462   -1.690905    3.628110
      9          8           0       -2.688447    2.167175    2.759480
     10          8           0       -2.097760   -0.120778   -2.763019
     11          8           0        5.343047    1.204271   -0.362060
     12          6           0        0.206797    0.590540    0.010327
     13          6           0       -0.843914    1.460547    0.721662
     14          6           0        1.194105    1.352190   -0.943939
     15          6           0       -0.228095    2.797891    1.229828
     16          6           0       -0.389590   -0.703950   -0.646532
     17          6           0        0.049562   -2.090430   -0.075473
     18          6           0        1.777703    2.721795   -0.276969
     19          6           0        1.281875    2.905298    1.166798
     20          6           0        1.567229   -2.355039   -0.279970
     21          6           0       -1.812519    2.303041   -0.148816
     22          6           0        2.477021    0.527936   -1.189765
     23          6           0       -0.324913   -2.294336    1.401727
     24          6           0        2.286514   -1.331455    0.604425
     25          6           0        0.606468    1.724040   -2.323260
     26          6           0        3.160380   -0.271753   -0.009977
     27          6           0        0.685418   -1.786520    2.425443
     28          6           0        1.984557   -1.255740    1.924813
     29          6           0        1.920560   -3.788500    0.221975
     30          6           0        1.953603   -2.329513   -1.779343
     31          6           0        2.738747   -0.430343    2.948048
     32          6           0       -2.245224    1.025018    2.744177
     33          6           0       -2.615876   -0.429244   -1.691973
     34          6           0       -2.528127   -0.097533    3.715173
     35          6           0        5.398773    0.062839   -0.799671
     36          6           0       -4.068274   -0.521905   -1.432588
     37          6           0        6.480445   -0.576792   -1.627031
     38          6           0       -4.930164   -0.327994   -2.518765
     39          6           0       -4.581817   -0.777306   -0.155025
     40          6           0       -6.307574   -0.399994   -2.330589
     41          6           0       -5.961280   -0.844479    0.029315
     42          6           0       -6.823436   -0.659392   -1.056468
     43          1           0        0.800026    0.250320    0.848116
     44          1           0       -0.659111    3.122602    2.173743
     45          1           0       -0.177600   -0.722014   -1.711699
     46          1           0        2.870417    2.664677   -0.295993
     47          1           0        1.709114    2.159743    1.846645
     48          1           0        1.610442    3.894528    1.501300
     49          1           0       -1.876148    2.048777   -1.203370
     50          1           0       -2.783740    2.455016    0.316367
     51          1           0       -0.449287   -3.372473    1.551927
     52          1           0       -1.275169   -1.803508    1.613475
     53          1           0       -0.081468    2.560189   -2.227303
     54          1           0        1.422039    2.031434   -2.976149
     55          1           0        0.074894    0.889568   -2.781443
     56          1           0        3.454657    0.469681    0.737067
     57          1           0        2.966207   -4.000617   -0.022543
     58          1           0        1.798188   -3.883969    1.302847
     59          1           0        1.270633   -4.503562   -0.287661
     60          1           0        3.040539   -2.363032   -1.872098
     61          1           0        1.499598   -3.201393   -2.254057
     62          1           0        1.603699   -1.445490   -2.310578
     63          1           0       -1.603417   -2.892877   -0.808494
     64          1           0        0.461341    4.044576   -0.850041
     65          1           0        2.399315    0.613726    2.962319
     66          1           0        2.519359   -0.846950    3.934653
     67          1           0        3.816358   -0.446808    2.770206
     68          1           0       -2.952815    0.316878    4.630007
     69          1           0       -3.258932   -0.782955    3.266924
     70          1           0       -1.613575   -0.664369    3.914369
     71          1           0        6.107450   -0.670197   -2.653284
     72          1           0        6.698317   -1.579210   -1.251829
     73          1           0        7.372844    0.048433   -1.616336
     74          1           0       -4.498945   -0.124041   -3.491031
     75          1           0       -3.896010   -0.903205    0.671108
     76          1           0       -6.978222   -0.253097   -3.168442
     77          1           0       -6.367156   -1.036540    1.015275
     78          1           0       -7.895706   -0.713143   -0.908686
 ---------------------------------------------------------------------
 Rotational constants (GHZ):           0.1373739           0.0686700           0.0668533
 Standard basis: 6-31G(d) (6D, 7F)
 There are   702 symmetry adapted cartesian basis functions of A   symmetry.
 There are   702 symmetry adapted basis functions of A   symmetry.
   702 basis functions,  1320 primitive gaussians,   702 cartesian basis functions
   155 alpha electrons      155 beta electrons
       nuclear repulsion energy      5850.0430161557 Hartrees.
 NAtoms=   78 NActive=   78 NUniq=   78 SFac= 1.00D+00 NAtFMM=   60 NAOKFM=T Big=T
 Integral buffers will be    131072 words long.
 Raffenetti 2 integral format.
 Two-electron integral symmetry is turned on.
 One-electron integrals computed using PRISM.
 NBasis=   702 RedAO= T EigKep=  4.52D-04  NBF=   702
 NBsUse=   702 1.00D-06 EigRej= -1.00D+00 NBFU=   702
 Initial guess from the checkpoint file:  "6WZ3_small_opt4.chk"
 B after Tr=     0.000000    0.000000   -0.000000
         Rot=    1.000000    0.000000   -0.000000   -0.000000 Ang=   0.00 deg.
 Requested convergence on RMS density matrix=1.00D-08 within 128 cycles.
 Requested convergence on MAX density matrix=1.00D-06.
 Requested convergence on             energy=1.00D-06.
 No special actions if energy rises.
 SCF Done:  E(RB3LYP) =  -2030.35180922     A.U. after   13 cycles
            NFock= 13  Conv=0.75D-08     -V/T= 2.0095

 **********************************************************************

            Population analysis using the SCF Density.

 **********************************************************************

 Orbital symmetries:
       Occupied  (A) (A) (A) (A) (A) (A) (A) (A) (A) (A) (A) (A)
                 (A) (A) (A) (A) (A) (A) (A) (A) (A) (A) (A) (A)
                 (A) (A) (A) (A) (A) (A) (A) (A) (A) (A) (A) (A)
                 (A) (A) (A) (A) (A) (A) (A) (A) (A) (A) (A) (A)
                 (A) (A) (A) (A) (A) (A) (A) (A) (A) (A) (A) (A)
                 (A) (A) (A) (A) (A) (A) (A) (A) (A) (A) (A) (A)
                 (A) (A) (A) (A) (A) (A) (A) (A) (A) (A) (A) (A)
                 (A) (A) (A) (A) (A) (A) (A) (A) (A) (A) (A) (A)
                 (A) (A) (A) (A) (A) (A) (A) (A) (A) (A) (A) (A)
                 (A) (A) (A) (A) (A) (A) (A) (A) (A) (A) (A) (A)
                 (A) (A) (A) (A) (A) (A) (A) (A) (A) (A) (A) (A)
                 (A) (A) (A) (A) (A) (A) (A) (A) (A) (A) (A) (A)
                 (A) (A) (A) (A) (A) (A) (A) (A) (A) (A) (A)
       Virtual   (A) (A) (A) (A) (A) (A) (A) (A) (A) (A) (A) (A)
                 (A) (A) (A) (A) (A) (A) (A) (A) (A) (A) (A) (A)
                 (A) (A) (A) (A) (A) (A) (A) (A) (A) (A) (A) (A)
                 (A) (A) (A) (A) (A) (A) (A) (A) (A) (A) (A) (A)
                 (A) (A) (A) (A) (A) (A) (A) (A) (A) (A) (A) (A)
                 (A) (A) (A) (A) (A) (A) (A) (A) (A) (A) (A) (A)
                 (A) (A) (A) (A) (A) (A) (A) (A) (A) (A) (A) (A)
                 (A) (A) (A) (A) (A) (A) (A) (A) (A) (A) (A) (A)
                 (A) (A) (A) (A) (A) (A) (A) (A) (A) (A) (A) (A)
                 (A) (A) (A) (A) (A) (A) (A) (A) (A) (A) (A) (A)
                 (A) (A) (A) (A) (A) (A) (A) (A) (A) (A) (A) (A)
                 (A) (A) (A) (A) (A) (A) (A) (A) (A) (A) (A) (A)
                 (A) (A) (A) (A) (A) (A) (A) (A) (A) (A) (A) (A)
                 (A) (A) (A) (A) (A) (A) (A) (A) (A) (A) (A) (A)
                 (A) (A) (A) (A) (A) (A) (A) (A) (A) (A) (A) (A)
                 (A) (A) (A) (A) (A) (A) (A) (A) (A) (A) (A) (A)
                 (A) (A) (A) (A) (A) (A) (A) (A) (A) (A) (A) (A)
                 (A) (A) (A) (A) (A) (A) (A) (A) (A) (A) (A) (A)
                 (A) (A) (A) (A) (A) (A) (A) (A) (A) (A) (A) (A)
                 (A) (A) (A) (A) (A) (A) (A) (A) (A) (A) (A) (A)
                 (A) (A) (A) (A) (A) (A) (A) (A) (A) (A) (A) (A)
                 (A) (A) (A) (A) (A) (A) (A) (A) (A) (A) (A) (A)
                 (A) (A) (A) (A) (A) (A) (A) (A) (A) (A) (A) (A)
                 (A) (A) (A) (A) (A) (A) (A) (A) (A) (A) (A) (A)
                 (A) (A) (A) (A) (A) (A) (A) (A) (A) (A) (A) (A)
                 (A) (A) (A) (A) (A) (A) (A) (A) (A) (A) (A) (A)
                 (A) (A) (A) (A) (A) (A) (A) (A) (A) (A) (A) (A)
                 (A) (A) (A) (A) (A) (A) (A) (A) (A) (A) (A) (A)
                 (A) (A) (A) (A) (A) (A) (A) (A) (A) (A) (A) (A)
                 (A) (A) (A) (A) (A) (A) (A) (A) (A) (A) (A) (A)
                 (A) (A) (A) (A) (A) (A) (A) (A) (A) (A) (A) (A)
                 (A) (A) (A) (A) (A) (A) (A) (A) (A) (A) (A) (A)
                 (A) (A) (A) (A) (A) (A) (A) (A) (A) (A) (A) (A)
                 (A) (A) (A) (A) (A) (A) (A) (A) (A) (A) (A) (A)
                 (A) (A) (A) (A) (A) (A) (A) (A) (A) (A) (A) (A)
                 (A) (A) (A) (A) (A) (A) (A) (A) (A) (A) (A) (A)
                 (A) (A) (A) (A) (A) (A) (A) (A) (A) (A) (A) (A)
                 (A) (A) (A) (A) (A) (A) (A) (A) (A) (A) (A) (A)
                 (A) (A) (A) (A) (A) (A) (A) (A) (A) (A) (A) (A)
                 (A) (A) (A) (A) (A) (A) (A) (A) (A) (A) (A) (A)
                 (A) (A) (A) (A) (A) (A) (A) (A) (A) (A) (A) (A)
                 (A) (A) (A) (A) (A) (A) (A) (A) (A) (A) (A) (A)
                 (A) (A) (A) (A) (A) (A) (A) (A) (A) (A) (A) (A)
                 (A) (A) (A) (A) (A) (A) (A) (A) (A) (A) (A) (A)
                 (A) (A) (A) (A) (A) (A) (A) (A) (A) (A) (A) (A)
                 (A) (A) (A) (A) (A) (A) (A)
 The electronic state is 1-A.
 Alpha  occ. eigenvalues --  -19.21073 -19.20573 -19.19673 -19.17083 -19.16081
 Alpha  occ. eigenvalues --  -19.16019 -19.15664 -19.15648 -19.15328 -19.14876
 Alpha  occ. eigenvalues --  -19.12777 -10.34006 -10.33894 -10.32910 -10.29397
 Alpha  occ. eigenvalues --  -10.29130 -10.28190 -10.27391 -10.26932 -10.26783
 Alpha  occ. eigenvalues --  -10.25612 -10.25100 -10.24943 -10.23473 -10.22529
 Alpha  occ. eigenvalues --  -10.22491 -10.22486 -10.22174 -10.21947 -10.21917
 Alpha  occ. eigenvalues --  -10.21907 -10.21596 -10.21544 -10.21401 -10.20372
 Alpha  occ. eigenvalues --  -10.20293 -10.20172 -10.20098 -10.19639 -10.18542
 Alpha  occ. eigenvalues --  -10.17566 -10.16285  -1.10553  -1.09953  -1.09558
 Alpha  occ. eigenvalues --   -1.04783  -1.04055  -1.03704  -1.03360  -1.02130
 Alpha  occ. eigenvalues --   -1.01539  -1.01258  -0.99201  -0.88395  -0.88046
 Alpha  occ. eigenvalues --   -0.84695  -0.81243  -0.79332  -0.79013  -0.78166
 Alpha  occ. eigenvalues --   -0.78118  -0.77095  -0.76687  -0.74968  -0.73835
 Alpha  occ. eigenvalues --   -0.73376  -0.69890  -0.69017  -0.68830  -0.68063
 Alpha  occ. eigenvalues --   -0.66735  -0.64514  -0.63762  -0.63279  -0.62196
 Alpha  occ. eigenvalues --   -0.60879  -0.60052  -0.58239  -0.57774  -0.56656
 Alpha  occ. eigenvalues --   -0.55737  -0.54308  -0.53379  -0.52547  -0.51585
 Alpha  occ. eigenvalues --   -0.51490  -0.51095  -0.50346  -0.49944  -0.49639
 Alpha  occ. eigenvalues --   -0.48872  -0.48557  -0.48116  -0.47899  -0.47421
 Alpha  occ. eigenvalues --   -0.47059  -0.46858  -0.46533  -0.46293  -0.45955
 Alpha  occ. eigenvalues --   -0.45794  -0.45533  -0.45179  -0.44695  -0.44608
 Alpha  occ. eigenvalues --   -0.44307  -0.44156  -0.43632  -0.43323  -0.42992
 Alpha  occ. eigenvalues --   -0.42527  -0.42289  -0.41840  -0.41542  -0.41267
 Alpha  occ. eigenvalues --   -0.40647  -0.40568  -0.39693  -0.39654  -0.39229
 Alpha  occ. eigenvalues --   -0.38964  -0.38793  -0.38582  -0.38336  -0.38226
 Alpha  occ. eigenvalues --   -0.38026  -0.37544  -0.37522  -0.37014  -0.36944
 Alpha  occ. eigenvalues --   -0.36459  -0.36269  -0.35872  -0.35717  -0.35201
 Alpha  occ. eigenvalues --   -0.34471  -0.34237  -0.33488  -0.33139  -0.32573
 Alpha  occ. eigenvalues --   -0.32321  -0.31138  -0.31020  -0.30337  -0.29455
 Alpha  occ. eigenvalues --   -0.29076  -0.28813  -0.28578  -0.27778  -0.27556
 Alpha  occ. eigenvalues --   -0.27425  -0.26679  -0.25836  -0.25600  -0.24834
 Alpha virt. eigenvalues --   -0.08758  -0.06902  -0.03718  -0.02514  -0.01433
 Alpha virt. eigenvalues --   -0.00208   0.02195   0.03354   0.03836   0.05050
 Alpha virt. eigenvalues --    0.06559   0.07035   0.08171   0.08675   0.08991
 Alpha virt. eigenvalues --    0.09630   0.10178   0.10681   0.11518   0.11953
 Alpha virt. eigenvalues --    0.12155   0.12934   0.13119   0.13301   0.13567
 Alpha virt. eigenvalues --    0.13678   0.14150   0.14392   0.14759   0.14827
 Alpha virt. eigenvalues --    0.15119   0.15225   0.15421   0.15904   0.16065
 Alpha virt. eigenvalues --    0.16324   0.16470   0.16840   0.17056   0.17092
 Alpha virt. eigenvalues --    0.17386   0.17731   0.18381   0.18748   0.18838
 Alpha virt. eigenvalues --    0.19279   0.19523   0.19840   0.20285   0.20811
 Alpha virt. eigenvalues --    0.20897   0.21157   0.21274   0.21638   0.22343
 Alpha virt. eigenvalues --    0.23088   0.23112   0.23402   0.23750   0.24583
 Alpha virt. eigenvalues --    0.24615   0.25358   0.25469   0.25939   0.26389
 Alpha virt. eigenvalues --    0.27209   0.27354   0.27423   0.28028   0.28455
 Alpha virt. eigenvalues --    0.28627   0.29177   0.29740   0.29775   0.30283
 Alpha virt. eigenvalues --    0.30895   0.31436   0.32283   0.32945   0.34086
 Alpha virt. eigenvalues --    0.34512   0.35964   0.36360   0.37370   0.37693
 Alpha virt. eigenvalues --    0.38334   0.39305   0.41487   0.42585   0.44082
 Alpha virt. eigenvalues --    0.47362   0.48394   0.49159   0.49521   0.50027
 Alpha virt. eigenvalues --    0.50244   0.50742   0.51234   0.51376   0.51794
 Alpha virt. eigenvalues --    0.52076   0.52983   0.53150   0.53262   0.53746
 Alpha virt. eigenvalues --    0.54557   0.54853   0.55246   0.55493   0.56069
 Alpha virt. eigenvalues --    0.56571   0.56631   0.56827   0.57241   0.57783
 Alpha virt. eigenvalues --    0.58013   0.58194   0.58625   0.59164   0.59310
 Alpha virt. eigenvalues --    0.59515   0.59672   0.59940   0.59952   0.60598
 Alpha virt. eigenvalues --    0.60934   0.61435   0.61702   0.62313   0.62555
 Alpha virt. eigenvalues --    0.63020   0.63425   0.63651   0.63831   0.64332
 Alpha virt. eigenvalues --    0.65125   0.65442   0.65819   0.66462   0.66772
 Alpha virt. eigenvalues --    0.67026   0.68016   0.68743   0.68932   0.69315
 Alpha virt. eigenvalues --    0.70089   0.70643   0.71243   0.72631   0.73039
 Alpha virt. eigenvalues --    0.73800   0.73933   0.74629   0.74813   0.75919
 Alpha virt. eigenvalues --    0.76279   0.76713   0.77210   0.77618   0.78715
 Alpha virt. eigenvalues --    0.79056   0.79903   0.80358   0.80717   0.81329
 Alpha virt. eigenvalues --    0.81626   0.81708   0.81921   0.82315   0.82758
 Alpha virt. eigenvalues --    0.82915   0.83005   0.83524   0.84471   0.84982
 Alpha virt. eigenvalues --    0.85317   0.85763   0.86147   0.86447   0.87106
 Alpha virt. eigenvalues --    0.87379   0.87807   0.88299   0.88373   0.88884
 Alpha virt. eigenvalues --    0.89397   0.89710   0.89884   0.90288   0.90627
 Alpha virt. eigenvalues --    0.90813   0.91200   0.91763   0.92012   0.92254
 Alpha virt. eigenvalues --    0.92688   0.93146   0.93919   0.94455   0.94577
 Alpha virt. eigenvalues --    0.95132   0.95675   0.96129   0.96611   0.97141
 Alpha virt. eigenvalues --    0.97331   0.98160   0.98497   0.98846   0.99003
 Alpha virt. eigenvalues --    0.99925   1.00472   1.01263   1.02207   1.02963
 Alpha virt. eigenvalues --    1.03401   1.03900   1.04231   1.04325   1.04970
 Alpha virt. eigenvalues --    1.05355   1.06335   1.06981   1.07876   1.07909
 Alpha virt. eigenvalues --    1.08077   1.08965   1.09724   1.10636   1.10999
 Alpha virt. eigenvalues --    1.11657   1.12123   1.12490   1.13215   1.13330
 Alpha virt. eigenvalues --    1.13817   1.15076   1.16090   1.16856   1.17573
 Alpha virt. eigenvalues --    1.18095   1.18257   1.18543   1.19440   1.20313
 Alpha virt. eigenvalues --    1.20790   1.21432   1.22237   1.22708   1.23388
 Alpha virt. eigenvalues --    1.24195   1.24857   1.25123   1.26315   1.27170
 Alpha virt. eigenvalues --    1.27240   1.27881   1.29293   1.29839   1.30629
 Alpha virt. eigenvalues --    1.31629   1.32557   1.33403   1.34221   1.34631
 Alpha virt. eigenvalues --    1.34973   1.36800   1.37530   1.38116   1.38550
 Alpha virt. eigenvalues --    1.39424   1.39891   1.40931   1.41601   1.42014
 Alpha virt. eigenvalues --    1.42390   1.42469   1.43396   1.43977   1.44424
 Alpha virt. eigenvalues --    1.44956   1.45704   1.46191   1.46757   1.47834
 Alpha virt. eigenvalues --    1.48365   1.48702   1.50742   1.51345   1.52245
 Alpha virt. eigenvalues --    1.52562   1.53111   1.53950   1.56309   1.57239
 Alpha virt. eigenvalues --    1.58004   1.59179   1.59881   1.60123   1.62164
 Alpha virt. eigenvalues --    1.62755   1.63237   1.63535   1.64672   1.65525
 Alpha virt. eigenvalues --    1.66008   1.66369   1.67466   1.68708   1.69067
 Alpha virt. eigenvalues --    1.69751   1.71067   1.71541   1.71873   1.72817
 Alpha virt. eigenvalues --    1.73606   1.74385   1.75066   1.75374   1.75518
 Alpha virt. eigenvalues --    1.76705   1.77107   1.77563   1.77660   1.78197
 Alpha virt. eigenvalues --    1.78592   1.78942   1.79353   1.79563   1.79749
 Alpha virt. eigenvalues --    1.80477   1.81076   1.81605   1.82534   1.82618
 Alpha virt. eigenvalues --    1.83097   1.83579   1.83952   1.84634   1.84833
 Alpha virt. eigenvalues --    1.85806   1.86239   1.86685   1.87614   1.87779
 Alpha virt. eigenvalues --    1.88577   1.88870   1.89349   1.89848   1.90285
 Alpha virt. eigenvalues --    1.90545   1.91469   1.91823   1.92284   1.92945
 Alpha virt. eigenvalues --    1.93582   1.94158   1.94761   1.95188   1.95961
 Alpha virt. eigenvalues --    1.96731   1.96890   1.97327   1.97571   1.97844
 Alpha virt. eigenvalues --    1.98488   1.99599   2.00187   2.01218   2.01646
 Alpha virt. eigenvalues --    2.02440   2.03454   2.03645   2.04214   2.04782
 Alpha virt. eigenvalues --    2.05361   2.05848   2.06740   2.07603   2.08786
 Alpha virt. eigenvalues --    2.09388   2.09644   2.09907   2.10492   2.10976
 Alpha virt. eigenvalues --    2.11264   2.12206   2.12828   2.13121   2.13523
 Alpha virt. eigenvalues --    2.14038   2.15110   2.16167   2.16679   2.17311
 Alpha virt. eigenvalues --    2.17493   2.18280   2.18675   2.19549   2.19946
 Alpha virt. eigenvalues --    2.21298   2.22788   2.22960   2.24047   2.24853
 Alpha virt. eigenvalues --    2.25422   2.25587   2.26557   2.26624   2.27013
 Alpha virt. eigenvalues --    2.27993   2.28226   2.28534   2.28926   2.29338
 Alpha virt. eigenvalues --    2.30422   2.32075   2.32379   2.33823   2.34316
 Alpha virt. eigenvalues --    2.35493   2.35987   2.36393   2.37186   2.37612
 Alpha virt. eigenvalues --    2.37812   2.38605   2.38926   2.40095   2.40931
 Alpha virt. eigenvalues --    2.41331   2.42164   2.42583   2.43581   2.44142
 Alpha virt. eigenvalues --    2.44429   2.45157   2.45457   2.46276   2.47497
 Alpha virt. eigenvalues --    2.48907   2.49520   2.50111   2.51512   2.52125
 Alpha virt. eigenvalues --    2.53048   2.54024   2.55049   2.55826   2.57653
 Alpha virt. eigenvalues --    2.58117   2.59699   2.59768   2.60662   2.62188
 Alpha virt. eigenvalues --    2.62520   2.62811   2.63417   2.64028   2.64800
 Alpha virt. eigenvalues --    2.65540   2.66666   2.67253   2.68746   2.69619
 Alpha virt. eigenvalues --    2.70931   2.71304   2.72026   2.72478   2.73108
 Alpha virt. eigenvalues --    2.74424   2.76526   2.77345   2.79123   2.79954
 Alpha virt. eigenvalues --    2.80711   2.82380   2.82731   2.83349   2.84225
 Alpha virt. eigenvalues --    2.86572   2.87683   2.89586   2.91530   2.91988
 Alpha virt. eigenvalues --    2.94793   2.96165   2.96319   2.97543   2.99827
 Alpha virt. eigenvalues --    2.99968   3.00549   3.03248   3.04096   3.05161
 Alpha virt. eigenvalues --    3.07320   3.07695   3.08836   3.08939   3.12990
 Alpha virt. eigenvalues --    3.15746   3.16824   3.18516   3.25996   3.40879
 Alpha virt. eigenvalues --    3.93596   3.96122   3.99028   4.03913   4.06380
 Alpha virt. eigenvalues --    4.06722   4.07000   4.07891   4.09630   4.10922
 Alpha virt. eigenvalues --    4.12111   4.15047   4.16822   4.20142   4.20391
 Alpha virt. eigenvalues --    4.24885   4.26174   4.28341   4.29387   4.30257
 Alpha virt. eigenvalues --    4.33757   4.36722   4.38441   4.39351   4.42008
 Alpha virt. eigenvalues --    4.44129   4.44689   4.47385   4.48769   4.51640
 Alpha virt. eigenvalues --    4.54654   4.55289   4.60532   4.67040   4.69990
 Alpha virt. eigenvalues --    4.70561   4.73653   4.76028   4.82541   4.90457
 Alpha virt. eigenvalues --    4.94500   5.00981
          Condensed to atoms (all electrons):
 Mulliken charges:
               1
     1  O   -0.562966
     2  O   -0.521356
     3  O   -0.550600
     4  O   -0.666356
     5  O   -0.645961
     6  O   -0.485369
     7  O   -0.454010
     8  O   -0.492500
     9  O   -0.463223
    10  O   -0.483810
    11  O   -0.467903
    12  C   -0.207286
    13  C    0.266925
    14  C   -0.032386
    15  C    0.117066
    16  C    0.105187
    17  C    0.298352
    18  C    0.100239
    19  C   -0.331796
    20  C   -0.003283
    21  C   -0.050511
    22  C    0.429096
    23  C   -0.418098
    24  C    0.094870
    25  C   -0.468260
    26  C   -0.027541
    27  C    0.446250
    28  C    0.011560
    29  C   -0.454471
    30  C   -0.498402
    31  C   -0.538751
    32  C    0.613396
    33  C    0.598585
    34  C   -0.560875
    35  C    0.639320
    36  C    0.044373
    37  C   -0.528797
    38  C   -0.146222
    39  C   -0.164116
    40  C   -0.138892
    41  C   -0.137819
    42  C   -0.112961
    43  H    0.161929
    44  H    0.184633
    45  H    0.196806
    46  H    0.181875
    47  H    0.154250
    48  H    0.179382
    49  H    0.180880
    50  H    0.188224
    51  H    0.191885
    52  H    0.198902
    53  H    0.145849
    54  H    0.190434
    55  H    0.177662
    56  H    0.199168
    57  H    0.156847
    58  H    0.143734
    59  H    0.178241
    60  H    0.175650
    61  H    0.172479
    62  H    0.167167
    63  H    0.399198
    64  H    0.432251
    65  H    0.173547
    66  H    0.197093
    67  H    0.171642
    68  H    0.186057
    69  H    0.179135
    70  H    0.234610
    71  H    0.206976
    72  H    0.183181
    73  H    0.186145
    74  H    0.172047
    75  H    0.164033
    76  H    0.147647
    77  H    0.143278
    78  H    0.146461
 Sum of Mulliken charges =  -0.00000
 Mulliken charges with hydrogens summed into heavy atoms:
               1
     1  O   -0.562966
     2  O   -0.521356
     3  O   -0.550600
     4  O   -0.267158
     5  O   -0.213710
     6  O   -0.485369
     7  O   -0.454010
     8  O   -0.492500
     9  O   -0.463223
    10  O   -0.483810
    11  O   -0.467903
    12  C   -0.045357
    13  C    0.266925
    14  C   -0.032386
    15  C    0.301699
    16  C    0.301994
    17  C    0.298352
    18  C    0.282114
    19  C    0.001836
    20  C   -0.003283
    21  C    0.318592
    22  C    0.429096
    23  C   -0.027312
    24  C    0.094870
    25  C    0.045685
    26  C    0.171626
    27  C    0.446250
    28  C    0.011560
    29  C    0.024351
    30  C    0.016894
    31  C    0.003531
    32  C    0.613396
    33  C    0.598585
    34  C    0.038927
    35  C    0.639320
    36  C    0.044373
    37  C    0.047505
    38  C    0.025825
    39  C   -0.000083
    40  C    0.008755
    41  C    0.005459
    42  C    0.033500
 Electronic spatial extent (au):  <R**2>=          18555.9582
 Charge=             -0.0000 electrons
 Dipole moment (field-independent basis, Debye):
    X=             -3.3361    Y=             -4.6549    Z=              1.7187  Tot=              5.9793
 Quadrupole moment (field-independent basis, Debye-Ang):
   XX=           -210.3830   YY=           -263.7446   ZZ=           -254.4181
   XY=             -4.8297   XZ=              6.7824   YZ=              4.8303
 Traceless Quadrupole moment (field-independent basis, Debye-Ang):
   XX=             32.4656   YY=            -20.8961   ZZ=            -11.5695
   XY=             -4.8297   XZ=              6.7824   YZ=              4.8303
 Octapole moment (field-independent basis, Debye-Ang**2):
  XXX=           -119.1202  YYY=            -44.3326  ZZZ=            -13.5236  XYY=              5.4545
  XXY=           -102.8615  XXZ=            -54.0380  XZZ=            -13.3032  YZZ=             12.9705
  YYZ=             14.8433  XYZ=             46.2413
 Hexadecapole moment (field-independent basis, Debye-Ang**3):
 XXXX=         -12290.1268 YYYY=          -5379.3717 ZZZZ=          -4757.4085 XXXY=           -148.5051
 XXXZ=             -8.5779 YYYX=            -65.2419 YYYZ=             37.9324 ZZZX=            -40.5754
 ZZZY=             80.1765 XXYY=          -3473.4295 XXZZ=          -2944.3256 YYZZ=          -1701.8765
 XXYZ=            -16.9701 YYXZ=             58.5483 ZZXY=             31.7298
 N-N= 5.850043016156D+03 E-N=-1.643366846943D+04  KE= 2.011317851980D+03
 Calling FoFJK, ICntrl=      2127 FMM=T ISym2X=0 I1Cent= 0 IOpClX= 0 NMat=1 NMatS=1 NMatT=0.
 ***** Axes restored to original set *****
 -------------------------------------------------------------------
 Center     Atomic                   Forces (Hartrees/Bohr)
 Number     Number              X              Y              Z
 -------------------------------------------------------------------
      1        8          -0.015174532   -0.018713996    0.025848639
      2        8          -0.006489905    0.020469522   -0.003124148
      3        8           0.008931204   -0.002670747   -0.020817450
      4        8          -0.012297725    0.020628561    0.004071247
      5        8          -0.011842316   -0.004681751    0.018327980
      6        8           0.004049233    0.023689559   -0.000527611
      7        8          -0.015935307    0.010261889    0.023828571
      8        8           0.006922185   -0.015423817   -0.023710332
      9        8           0.003661080   -0.024697065    0.013856871
     10        8          -0.014150976    0.002827547    0.023109928
     11        8           0.003779020   -0.028097409   -0.000561883
     12        6          -0.006019019   -0.001638141   -0.001344562
     13        6          -0.003238077    0.006078806    0.005187258
     14        6           0.003100120    0.003424244   -0.007927314
     15        6          -0.011914180   -0.007175702   -0.020898468
     16        6          -0.017322265   -0.000676599   -0.000220044
     17        6          -0.010048262   -0.012678069   -0.007210583
     18        6          -0.005875098    0.008598824   -0.010559667
     19        6          -0.001232889    0.002297502   -0.007426398
     20        6           0.001190101   -0.002755718    0.000243565
     21        6           0.023027325    0.016405018    0.010065297
     22        6           0.015648824   -0.006636023   -0.019205567
     23        6           0.000254284   -0.001020042    0.001177087
     24        6           0.001459113   -0.003416578   -0.000983323
     25        6           0.000343200   -0.001166844    0.002718277
     26        6           0.016093388   -0.014224941   -0.008695339
     27        6          -0.005544100    0.008414646    0.019448004
     28        6           0.003387038    0.005286857    0.009372815
     29        6          -0.000252467    0.003918960   -0.003729073
     30        6          -0.001525150    0.002035929    0.004561835
     31        6          -0.001785713   -0.003446111   -0.001087403
     32        6           0.007691163    0.008227464   -0.021062657
     33        6           0.024850659   -0.003542003   -0.002074346
     34        6          -0.000854650    0.003897190   -0.003725655
     35        6          -0.019536613    0.013439835    0.009124684
     36        6           0.001049377   -0.000084150   -0.002729957
     37        6          -0.001081222    0.004737638   -0.000237344
     38        6          -0.002749022    0.000052098    0.000326293
     39        6          -0.003155563    0.000282426   -0.001177554
     40        6           0.000857137    0.000377089    0.002333052
     41        6           0.000267972   -0.000470503   -0.001971858
     42        6           0.002843058   -0.000294860   -0.000174961
     43        1          -0.000851688    0.003248463   -0.002482649
     44        1           0.000387563    0.002007250   -0.000388942
     45        1          -0.001317723    0.000871928    0.000514988
     46        1          -0.000604835    0.002478890   -0.001256885
     47        1           0.000474738    0.001315373    0.000661054
     48        1           0.000599220    0.000114387    0.001761538
     49        1          -0.000744968    0.001481589   -0.001947696
     50        1          -0.001241209    0.001137083   -0.001992346
     51        1          -0.001215253    0.001475068    0.001419611
     52        1          -0.001312329   -0.001796615    0.002947736
[...]
                 (A) (A) (A) (A) (A) (A) (A) (A) (A) (A) (A) (A)
                 (A) (A) (A) (A) (A) (A) (A) (A) (A) (A) (A) (A)
                 (A) (A) (A) (A) (A) (A) (A)
 The electronic state is 1-A.
 Alpha  occ. eigenvalues --  -19.21159 -19.20849 -19.20082 -19.16730 -19.16196
 Alpha  occ. eigenvalues --  -19.15568 -19.15520 -19.15147 -19.14949 -19.14490
 Alpha  occ. eigenvalues --  -19.13640 -10.33620 -10.33519 -10.32584 -10.29221
 Alpha  occ. eigenvalues --  -10.28674 -10.27956 -10.27150 -10.26967 -10.26524
 Alpha  occ. eigenvalues --  -10.25233 -10.25052 -10.24658 -10.23211 -10.22818
 Alpha  occ. eigenvalues --  -10.22609 -10.22434 -10.22328 -10.21811 -10.21780
 Alpha  occ. eigenvalues --  -10.21681 -10.21369 -10.21359 -10.21201 -10.20440
 Alpha  occ. eigenvalues --  -10.20052 -10.20011 -10.19981 -10.19669 -10.18565
 Alpha  occ. eigenvalues --  -10.17840 -10.17033  -1.12004  -1.11417  -1.11258
 Alpha  occ. eigenvalues --   -1.05990  -1.05822  -1.04833  -1.04469  -1.03201
 Alpha  occ. eigenvalues --   -1.02730  -1.02309  -1.01648  -0.88007  -0.87696
 Alpha  occ. eigenvalues --   -0.84517  -0.81100  -0.79277  -0.79025  -0.78389
 Alpha  occ. eigenvalues --   -0.78000  -0.76853  -0.76655  -0.74952  -0.73743
 Alpha  occ. eigenvalues --   -0.73376  -0.69881  -0.69195  -0.68974  -0.68392
 Alpha  occ. eigenvalues --   -0.66769  -0.64754  -0.64010  -0.63254  -0.62259
 Alpha  occ. eigenvalues --   -0.61262  -0.60895  -0.58547  -0.57976  -0.57076
 Alpha  occ. eigenvalues --   -0.55921  -0.54492  -0.53745  -0.52955  -0.51762
 Alpha  occ. eigenvalues --   -0.51568  -0.51058  -0.50835  -0.50244  -0.49702
 Alpha  occ. eigenvalues --   -0.49151  -0.48671  -0.48309  -0.48090  -0.47785
 Alpha  occ. eigenvalues --   -0.47268  -0.47065  -0.46873  -0.46489  -0.46368
 Alpha  occ. eigenvalues --   -0.45977  -0.45727  -0.45470  -0.44780  -0.44420
 Alpha  occ. eigenvalues --   -0.44401  -0.44120  -0.43606  -0.43347  -0.43006
 Alpha  occ. eigenvalues --   -0.42472  -0.42278  -0.42114  -0.41589  -0.41286
 Alpha  occ. eigenvalues --   -0.40987  -0.40702  -0.40058  -0.39841  -0.39703
 Alpha  occ. eigenvalues --   -0.39279  -0.38825  -0.38693  -0.38250  -0.38150
 Alpha  occ. eigenvalues --   -0.38004  -0.37748  -0.37592  -0.37094  -0.36940
 Alpha  occ. eigenvalues --   -0.36500  -0.36427  -0.36111  -0.35891  -0.35630
 Alpha  occ. eigenvalues --   -0.34584  -0.34017  -0.33713  -0.33494  -0.32659
 Alpha  occ. eigenvalues --   -0.32213  -0.31581  -0.31288  -0.30240  -0.29421
 Alpha  occ. eigenvalues --   -0.29089  -0.28909  -0.28495  -0.27613  -0.27397
 Alpha  occ. eigenvalues --   -0.27327  -0.26572  -0.26197  -0.25351  -0.24770
 Alpha virt. eigenvalues --   -0.08038  -0.06374  -0.03123  -0.02287  -0.00727
 Alpha virt. eigenvalues --    0.00471   0.02741   0.04009   0.04797   0.04891
 Alpha virt. eigenvalues --    0.06607   0.07416   0.08444   0.08751   0.09134
 Alpha virt. eigenvalues --    0.09878   0.10244   0.10518   0.11068   0.12378
 Alpha virt. eigenvalues --    0.12625   0.12719   0.12984   0.13288   0.13409
 Alpha virt. eigenvalues --    0.13996   0.14133   0.14577   0.14708   0.14944
 Alpha virt. eigenvalues --    0.15207   0.15410   0.15533   0.15917   0.16057
 Alpha virt. eigenvalues --    0.16282   0.16331   0.16381   0.17036   0.17277
 Alpha virt. eigenvalues --    0.17390   0.17621   0.18165   0.18538   0.18842
 Alpha virt. eigenvalues --    0.19400   0.19660   0.19850   0.20492   0.20794
 Alpha virt. eigenvalues --    0.21009   0.21584   0.21838   0.22018   0.22341
 Alpha virt. eigenvalues --    0.22940   0.23454   0.23687   0.23929   0.24683
 Alpha virt. eigenvalues --    0.24746   0.25416   0.25610   0.25906   0.26580
 Alpha virt. eigenvalues --    0.26965   0.27379   0.27878   0.28306   0.28571
 Alpha virt. eigenvalues --    0.28977   0.29279   0.29856   0.29897   0.30062
 Alpha virt. eigenvalues --    0.31314   0.31603   0.32129   0.33205   0.34336
 Alpha virt. eigenvalues --    0.35001   0.36160   0.36737   0.37357   0.38228
 Alpha virt. eigenvalues --    0.39117   0.39768   0.41529   0.42751   0.44679
 Alpha virt. eigenvalues --    0.47782   0.48634   0.48879   0.49848   0.50036
 Alpha virt. eigenvalues --    0.50520   0.50819   0.51151   0.51514   0.51753
 Alpha virt. eigenvalues --    0.52275   0.52953   0.53222   0.53394   0.53752
 Alpha virt. eigenvalues --    0.54636   0.54762   0.55211   0.55625   0.56040
 Alpha virt. eigenvalues --    0.56588   0.56843   0.57107   0.57446   0.57538
 Alpha virt. eigenvalues --    0.57790   0.58144   0.58714   0.59185   0.59406
 Alpha virt. eigenvalues --    0.59546   0.59845   0.59987   0.60052   0.60464
 Alpha virt. eigenvalues --    0.60879   0.61288   0.61868   0.62152   0.62375
 Alpha virt. eigenvalues --    0.62820   0.63363   0.64138   0.64241   0.64802
 Alpha virt. eigenvalues --    0.65477   0.66109   0.66231   0.66529   0.67003
 Alpha virt. eigenvalues --    0.67248   0.68090   0.68305   0.69098   0.69387
 Alpha virt. eigenvalues --    0.69903   0.70476   0.71025   0.72304   0.72765
 Alpha virt. eigenvalues --    0.73350   0.73893   0.74377   0.75237   0.75955
 Alpha virt. eigenvalues --    0.76063   0.76688   0.77527   0.78029   0.78462
 Alpha virt. eigenvalues --    0.79018   0.79351   0.79991   0.80791   0.81455
 Alpha virt. eigenvalues --    0.81617   0.81856   0.82000   0.82140   0.82616
 Alpha virt. eigenvalues --    0.82684   0.82926   0.83568   0.84447   0.84577
 Alpha virt. eigenvalues --    0.84960   0.85751   0.85876   0.86067   0.86389
 Alpha virt. eigenvalues --    0.86872   0.87540   0.87899   0.88445   0.88601
 Alpha virt. eigenvalues --    0.89026   0.89214   0.89633   0.90022   0.90129
 Alpha virt. eigenvalues --    0.90717   0.91132   0.91292   0.91864   0.91897
 Alpha virt. eigenvalues --    0.92514   0.93455   0.93869   0.94105   0.94433
 Alpha virt. eigenvalues --    0.94709   0.95307   0.95485   0.95890   0.96193
 Alpha virt. eigenvalues --    0.97148   0.97332   0.97752   0.98660   0.99222
 Alpha virt. eigenvalues --    1.00019   1.00110   1.00791   1.01020   1.01826
 Alpha virt. eigenvalues --    1.02769   1.02893   1.03222   1.03270   1.04510
 Alpha virt. eigenvalues --    1.04975   1.06027   1.06326   1.06884   1.07109
 Alpha virt. eigenvalues --    1.07421   1.08355   1.08832   1.09914   1.10161
 Alpha virt. eigenvalues --    1.11274   1.11318   1.11729   1.11799   1.12450
 Alpha virt. eigenvalues --    1.13466   1.14046   1.14439   1.15662   1.16168
 Alpha virt. eigenvalues --    1.16785   1.17192   1.17456   1.18223   1.18757
 Alpha virt. eigenvalues --    1.19800   1.20192   1.20355   1.20865   1.23011
 Alpha virt. eigenvalues --    1.23123   1.23623   1.24170   1.25136   1.25876
 Alpha virt. eigenvalues --    1.26857   1.27331   1.27424   1.27863   1.29592
 Alpha virt. eigenvalues --    1.30487   1.31713   1.32287   1.33155   1.34026
 Alpha virt. eigenvalues --    1.34524   1.34573   1.35934   1.37289   1.38149
 Alpha virt. eigenvalues --    1.38646   1.39211   1.40082   1.40970   1.41408
 Alpha virt. eigenvalues --    1.41965   1.42250   1.43285   1.43577   1.43995
 Alpha virt. eigenvalues --    1.44834   1.45127   1.45732   1.46934   1.47164
 Alpha virt. eigenvalues --    1.48475   1.48668   1.49757   1.50290   1.51515
 Alpha virt. eigenvalues --    1.52492   1.52665   1.53331   1.55898   1.57138
 Alpha virt. eigenvalues --    1.58269   1.59466   1.60418   1.61214   1.61983
 Alpha virt. eigenvalues --    1.62205   1.63356   1.63766   1.64366   1.65010
 Alpha virt. eigenvalues --    1.66286   1.66656   1.67504   1.68058   1.68970
 Alpha virt. eigenvalues --    1.69901   1.70529   1.71073   1.72295   1.72778
 Alpha virt. eigenvalues --    1.73466   1.73923   1.74743   1.75271   1.75721
 Alpha virt. eigenvalues --    1.76432   1.76461   1.76653   1.77691   1.77907
 Alpha virt. eigenvalues --    1.78218   1.78971   1.79407   1.79492   1.80076
 Alpha virt. eigenvalues --    1.80499   1.81456   1.81581   1.82240   1.82345
 Alpha virt. eigenvalues --    1.83110   1.83883   1.84662   1.84754   1.85710
 Alpha virt. eigenvalues --    1.85961   1.86068   1.86276   1.87187   1.87322
 Alpha virt. eigenvalues --    1.88337   1.89195   1.89301   1.89866   1.90527
 Alpha virt. eigenvalues --    1.90643   1.91144   1.91578   1.92361   1.93204
 Alpha virt. eigenvalues --    1.94388   1.94768   1.94967   1.95950   1.96320
 Alpha virt. eigenvalues --    1.96995   1.97231   1.97868   1.98252   1.98829
 Alpha virt. eigenvalues --    1.99423   1.99956   2.00638   2.01302   2.01966
 Alpha virt. eigenvalues --    2.02886   2.03364   2.03980   2.04408   2.05079
 Alpha virt. eigenvalues --    2.05732   2.06565   2.07253   2.07400   2.08992
 Alpha virt. eigenvalues --    2.09663   2.10104   2.10581   2.11176   2.11376
 Alpha virt. eigenvalues --    2.12303   2.12399   2.12751   2.13850   2.14135
 Alpha virt. eigenvalues --    2.14626   2.16016   2.16484   2.17060   2.17656
 Alpha virt. eigenvalues --    2.18744   2.19147   2.19685   2.20513   2.21198
 Alpha virt. eigenvalues --    2.22005   2.22652   2.24383   2.24760   2.25315
 Alpha virt. eigenvalues --    2.25876   2.26312   2.26724   2.27152   2.27666
 Alpha virt. eigenvalues --    2.28447   2.28685   2.28896   2.29560   2.30423
 Alpha virt. eigenvalues --    2.31472   2.32460   2.33088   2.33959   2.34913
 Alpha virt. eigenvalues --    2.35317   2.35859   2.36980   2.37299   2.38425
 Alpha virt. eigenvalues --    2.38614   2.39432   2.40082   2.40860   2.42304
 Alpha virt. eigenvalues --    2.42566   2.43108   2.43996   2.44649   2.45273
 Alpha virt. eigenvalues --    2.45769   2.46555   2.46705   2.47906   2.48243
 Alpha virt. eigenvalues --    2.49533   2.50351   2.50619   2.53081   2.53910
 Alpha virt. eigenvalues --    2.54085   2.55460   2.56437   2.56961   2.57476
 Alpha virt. eigenvalues --    2.58341   2.59570   2.60899   2.61861   2.63343
 Alpha virt. eigenvalues --    2.63855   2.64227   2.64823   2.65535   2.66668
 Alpha virt. eigenvalues --    2.67010   2.67161   2.68104   2.69090   2.70968
 Alpha virt. eigenvalues --    2.71733   2.72484   2.72668   2.73175   2.74566
 Alpha virt. eigenvalues --    2.75529   2.77115   2.78135   2.79647   2.80629
 Alpha virt. eigenvalues --    2.81042   2.82213   2.82930   2.83652   2.84823
 Alpha virt. eigenvalues --    2.86794   2.87832   2.90977   2.92341   2.93214
 Alpha virt. eigenvalues --    2.95813   2.96783   2.97655   2.97755   2.99858
 Alpha virt. eigenvalues --    3.00552   3.01016   3.03936   3.04829   3.05403
 Alpha virt. eigenvalues --    3.07143   3.09878   3.11060   3.11603   3.14417
 Alpha virt. eigenvalues --    3.16115   3.16451   3.20806   3.26648   3.40982
 Alpha virt. eigenvalues --    3.94916   3.96658   4.00251   4.03608   4.06062
 Alpha virt. eigenvalues --    4.06641   4.07152   4.08146   4.09648   4.11613
 Alpha virt. eigenvalues --    4.12830   4.14458   4.16196   4.19325   4.20957
 Alpha virt. eigenvalues --    4.23208   4.24600   4.28008   4.29616   4.30380
 Alpha virt. eigenvalues --    4.33761   4.36227   4.37750   4.38759   4.43135
 Alpha virt. eigenvalues --    4.43880   4.45326   4.46805   4.47830   4.51015
 Alpha virt. eigenvalues --    4.53539   4.56065   4.62932   4.66374   4.69410
 Alpha virt. eigenvalues --    4.70429   4.71595   4.74910   4.81379   4.90081
 Alpha virt. eigenvalues --    4.92489   4.99722
          Condensed to atoms (all electrons):
 Mulliken charges:
               1
     1  O   -0.541597
     2  O   -0.503747
     3  O   -0.533341
     4  O   -0.660009
     5  O   -0.630976
     6  O   -0.464309
     7  O   -0.443766
     8  O   -0.482312
     9  O   -0.459404
    10  O   -0.479823
    11  O   -0.467091
    12  C   -0.204959
    13  C    0.255672
    14  C   -0.038798
    15  C    0.129352
    16  C    0.105783
    17  C    0.313171
    18  C    0.106859
    19  C   -0.326346
    20  C   -0.004397
    21  C   -0.042379
    22  C    0.426295
    23  C   -0.428582
    24  C    0.094130
    25  C   -0.465462
    26  C   -0.035146
    27  C    0.438355
    28  C    0.018357
    29  C   -0.453713
    30  C   -0.502789
    31  C   -0.528431
    32  C    0.609056
    33  C    0.595789
    34  C   -0.551498
    35  C    0.630630
    36  C    0.042613
    37  C   -0.531517
    38  C   -0.148528
    39  C   -0.170687
    40  C   -0.137441
    41  C   -0.135145
    42  C   -0.114553
    43  H    0.161991
    44  H    0.171847
    45  H    0.194421
    46  H    0.175403
    47  H    0.149241
    48  H    0.176935
    49  H    0.166372
    50  H    0.182760
    51  H    0.188945
    52  H    0.192328
    53  H    0.145646
    54  H    0.196062
    55  H    0.171525
    56  H    0.197463
    57  H    0.155925
    58  H    0.146471
    59  H    0.172994
    60  H    0.171281
    61  H    0.176066
    62  H    0.165886
    63  H    0.402093
    64  H    0.421144
    65  H    0.166618
    66  H    0.192627
    67  H    0.172078
    68  H    0.187866
    69  H    0.180109
    70  H    0.211935
    71  H    0.201914
    72  H    0.178807
    73  H    0.185383
    74  H    0.170500
    75  H    0.156682
    76  H    0.146192
    77  H    0.141978
    78  H    0.145191
 Sum of Mulliken charges =  -0.00000
 Mulliken charges with hydrogens summed into heavy atoms:
               1
     1  O   -0.541597
     2  O   -0.503747
     3  O   -0.533341
     4  O   -0.257915
     5  O   -0.209833
     6  O   -0.464309
     7  O   -0.443766
     8  O   -0.482312
     9  O   -0.459404
    10  O   -0.479823
    11  O   -0.467091
    12  C   -0.042968
    13  C    0.255672
    14  C   -0.038798
    15  C    0.301199
    16  C    0.300204
    17  C    0.313171
    18  C    0.282263
    19  C   -0.000170
    20  C   -0.004397
    21  C    0.306753
    22  C    0.426295
    23  C   -0.047309
    24  C    0.094130
    25  C    0.047772
    26  C    0.162317
    27  C    0.438355
    28  C    0.018357
    29  C    0.021677
    30  C    0.010445
    31  C    0.002893
    32  C    0.609056
    33  C    0.595789
    34  C    0.028412
    35  C    0.630630
    36  C    0.042613
    37  C    0.034588
    38  C    0.021972
    39  C   -0.014005
    40  C    0.008751
    41  C    0.006833
    42  C    0.030638
 Electronic spatial extent (au):  <R**2>=          18881.4639
 Charge=             -0.0000 electrons
 Dipole moment (field-independent basis, Debye):
    X=             -3.2312    Y=             -4.2248    Z=              1.6536  Tot=              5.5699
 Quadrupole moment (field-independent basis, Debye-Ang):
   XX=           -215.5617   YY=           -260.2304   ZZ=           -255.5381
   XY=             -3.7236   XZ=              5.3319   YZ=              5.4800
 Traceless Quadrupole moment (field-independent basis, Debye-Ang):
   XX=             28.2150   YY=            -16.4537   ZZ=            -11.7614
   XY=             -3.7236   XZ=              5.3319   YZ=              5.4800
 Octapole moment (field-independent basis, Debye-Ang**2):
  XXX=           -129.7936  YYY=            -34.7529  ZZZ=            -14.4991  XYY=             16.9963
  XXY=           -119.1353  XXZ=            -42.6759  XZZ=            -19.0620  YZZ=             17.8857
  YYZ=              8.5886  XYZ=             46.4367
 Hexadecapole moment (field-independent basis, Debye-Ang**3):
 XXXX=         -12785.9145 YYYY=          -5522.3081 ZZZZ=          -4684.4895 XXXY=           -149.4661
 XXXZ=             -2.9197 YYYX=            -38.1830 YYYZ=             28.0300 ZZZX=            -49.3104
 ZZZY=            109.5747 XXYY=          -3535.4628 XXZZ=          -3012.3907 YYZZ=          -1733.8556
 XXYZ=             -1.0349 YYXZ=             63.7823 ZZXY=             23.5536
 N-N= 5.816653453620D+03 E-N=-1.636707810163D+04  KE= 2.012029388198D+03
 Unable to Open any file for archive entry.
 1\1\GINC-LAC-441\FOpt\RB3LYP\6-31G(d)\C31H36O11\LIZHEN6\05-Apr-2023\0\
 \# B3LYP/6-31G* Geom=Chk Guess=Read Opt\\CLR\\0,1\O,-0.4453454277,3.47
 32713963,-1.29589587\O,-1.1830130569,1.4962778744,1.3039726585\O,-1.83
 96237526,-0.5540464024,-0.359829812\O,-0.9401384633,-3.0055454733,0.23
 86423584\O,2.0774522347,3.0512151093,-2.4121797049\O,4.3451585516,-1.4
 58961909,0.0525469198\O,3.3745337827,-0.4362344698,-2.1175229823\O,0.3
 323865393,-0.5155075151,4.1012092823\O,-2.3977929316,3.4125871712,1.52
 50868273\O,-2.0023122308,-0.9543494091,-2.5942010654\O,5.7082694535,0.
 3483173788,-0.0996084731\C,0.3704244781,0.6186523688,-0.2280407313\C,-
 0.5638055719,1.8270165123,0.0390106327\C,1.4872500413,0.8335955267,-1.
 3352466917\C,0.18032579,3.1798120554,-0.0040652417\C,-0.3958057796,-0.
 7515701032,-0.3786847714\C,-0.1343445567,-1.9042207222,0.6647377057\C,
 2.1978334214,2.294600988,-1.2269286661\C,1.6915624862,3.1194187746,-0.
 0399436476\C,1.3466120147,-2.4084848298,0.6220834501\C,-1.4147838841,2
 .4005687251,-1.1129734004\C,2.6993974212,-0.1324887968,-1.1585851499\C
 ,-0.502442921,-1.5488915501,2.1202810994\C,2.2037494873,-1.2418936784,
 1.1446790859\C,0.9861431963,0.6481841106,-2.7838952381\C,3.2296044937,
 -0.5834908182,0.2552824417\C,0.5980870019,-0.9289221245,2.9794807876\C
 ,1.9399012649,-0.7061519129,2.3658056348\C,1.5365802978,-3.6236589983,
 1.5749827935\C,1.7237616286,-2.9381152974,-0.7799567949\C,2.8033266894
 ,0.2886006236,3.1033015939\C,-2.0335799506,2.3399358979,1.951741642\C,
 -2.5304150034,-0.7325512889,-1.5245007825\C,-2.471342841,1.7344747911,
 3.2657010228\C,5.5391784085,-0.8453174029,-0.2004458558\C,-4.001800899
 1,-0.6126092392,-1.3267980984\C,6.5783454993,-1.8566103591,-0.60664295
 61\C,-4.8241813646,-0.8019778684,-2.4471233569\C,-4.5777362417,-0.3241
 330445,-0.0808350578\C,-6.2071484152,-0.7051472858,-2.3217943677\C,-5.
 9626705072,-0.2268298651,0.0393972578\C,-6.7777816668,-0.4175795541,-1
 .0788764172\H,0.9067240492,0.5770736052,0.7132749273\H,-0.1842179999,3
 .879575933,0.7512699537\H,-0.1790194341,-1.1805692164,-1.3513760758\H,
 3.2744750785,2.1360212242,-1.1150296104\H,2.0357816695,2.7083133695,0.
 9195943605\H,2.1194221099,4.1244866968,-0.1236396721\H,-1.5206377384,1
 .7920022484,-2.0129467622\H,-2.381662941,2.7937722856,-0.7960121105\H,
 -0.8142981965,-2.4745439042,2.6165812911\H,-1.3577388357,-0.8696114496
 ,2.1574870064\H,0.2125603537,1.3745695091,-3.0320016634\H,1.8134625169
 ,0.7949452646,-3.4749304253\H,0.5723874588,-0.347557023,-2.9534289978\
 H,3.5991744846,0.3318315583,0.7256081282\H,2.5712560761,-3.9747991033,
 1.5015022371\H,1.3514098306,-3.3827989676,2.6242929103\H,0.8700960294,
 -4.4381309157,1.280372095\H,2.7753403341,-3.2324503109,-0.8048653183\H
 ,1.1075853896,-3.814321508,-0.9940676899\H,1.5663988486,-2.2334038192,
 -1.5958725502\H,-1.86536449,-2.7186017893,0.3005984715\H,1.1522655702,
 3.3621921667,-2.4421732073\H,2.4607991317,1.3227074081,2.9584374521\H,
 2.7185105788,0.0919079971,4.1759179952\H,3.8550226336,0.2289507072,2.8
 15189001\H,-2.8522865116,2.5271204869,3.9117280902\H,-3.2839900174,1.0
 208270042,3.0816006432\H,-1.6561130138,1.1927758986,3.75312579\H,6.362
 8526047,-2.1869296801,-1.6288905301\H,6.5427420357,-2.7360870481,0.042
 4253285\H,7.5668694128,-1.3971330312,-0.5754045014\H,-4.3599275282,-1.
 0234239655,-3.4023017101\H,-3.939701524,-0.1730646503,0.7825164242\H,-
 6.8408478411,-0.8528158782,-3.191540801\H,-6.4068241357,-0.0002476598,
 1.0045042569\H,-7.857324726,-0.3408228578,-0.9819127976\\Version=ES64L
 -G16RevC.01\State=1-A\HF=-2030.3717265\RMSD=9.471e-09\RMSF=5.996e-06\D
 ipole=-1.481129,-1.2164012,1.0624072\Quadrupole=19.5141701,-8.725745,-
 10.7884251,-4.5424543,7.3350026,3.456963\PG=C01 [X(C31H36O11)]\\@
 The archive entry for this job was punched.


 KNOWLEDGE IS OF TWO KINDS:  WE KNOW A SUBJECT OURSELVES OR WE KNOW 
 WHERE WE CAN FIND INFORMATION UPON IT.

                                    -- SAMUEL JOHNSON
 Job cpu time:       0 days 14 hours  6 minutes 51.4 seconds.
 Elapsed time:       0 days  1 hours 46 minutes  4.2 seconds.
 File lengths (MBytes):  RWF=    560 Int=      0 D2E=      0 Chk=     64 Scr=     32
 Normal termination of Gaussian 16 at Wed Apr  5 21:22:14 2023.
